<?xml version="1.0"?>
<VTKFile type="UnstructuredGrid"  version="0.1"  >
<UnstructuredGrid>
<Piece  NumberOfPoints="1289" NumberOfCells="2413">
<Points>
<DataArray  type="Float64"  NumberOfComponents="3"  format="ascii">0 0 0  0 0.41 0  2.2 0.41 0  2.2 0 0  0.1 0.1 0  0.1 0.3 0  0.8 0.3 0  0.8 0.1 0  0.25 0.2 0  0.248976 0.210065 0  0.245948 0.219718 0  0.241038 0.228563 0  0.234448 0.23624 0  0.226448 0.242432 0  0.217365 0.246888 0  0.207571 0.249423 0  0.197468 0.249936 0  0.187467 0.248404 0  0.17798 0.24489 0  0.169395 0.239539 0  0.162062 0.232569 0  0.156283 0.224265 0  0.152293 0.214968 0  0.150257 0.205058 0  0.150257 0.194942 0  0.152293 0.185032 0  0.156283 0.175735 0  0.162062 0.167431 0  0.169395 0.160461 0  0.17798 0.15511 0  0.187467 0.151596 0  0.197468 0.150064 0  0.207571 0.150577 0  0.217365 0.153112 0  0.226448 0.157568 0  0.234448 0.16376 0  0.241038 0.171437 0  0.245948 0.180282 0  0.248976 0.189935 0  1.1 0 0  1.1 0.41 0  0.1 0.2 0  0.45 0.1 0  0.45 0.3 0  0.55 0 0  0.275 0.1 0  0.275 0.3 0  0.275 0 0  0.55 0.41 0  0 0.205 0  0.825 0 0  0.825 0.41 0  0.275 0.41 0  0.1 0.15 0  0.1875 0.1 0  0.1 0.25 0  0.1875 0.3 0  0.132322 0.2 0  0.241426 0.253518 0  0.241426 0.146482 0  0.264574 0.17974 0  0.264574 0.22026 0  0.138434 0.187348 0  0.153372 0.150948 0  0.148413 0.164094 0  0.176495 0.136535 0  0.22768 0.143571 0  0.138434 0.212652 0  0.148413 0.235906 0  0.176495 0.263465 0  0.22768 0.256429 0  0.23125 0.3 0  0.24769 0.24094 0  0.23125 0.1 0  0.24769 0.15906 0  0.26253 0.193641 0  0.190482 0.137872 0  0.166753 0.146661 0  0.157737 0.244461 0  0.190482 0.262128 0  0.203107 0.261264 0  0.253635 0.22977 0  0.203107 0.138736 0  0.253635 0.17023 0  0.261028 0.206206 0  0.167707 0.251809 0  0.143629 0.224191 0  0.215302 0.2591 0  0.270465 0.245894 0  0.215302 0.1409 0  0.270465 0.154106 0  0.284052 0.202587 0  0.14375 0.3 0  0.209375 0.3 0  0.225966 0.278501 0  0.209375 0.1 0  0.225966 0.121499 0  0.211613 0.273759 0  0.211613 0.126241 0  0.143629 0.175809 0  0.1 0.175 0  0.133484 0.164832 0  0.144491 0.249539 0  0.1 0.225 0  0.133484 0.235168 0  0.3625 0.3 0  0.25691 0.253381 0  0.25691 0.146619 0  0.277205 0.188698 0  0.184724 0.275712 0  0.237372 0.268285 0  0.184724 0.124288 0  0.237372 0.131715 0  0.197578 0.273149 0  0.193656 0.286994 0  0.197578 0.126851 0  0.193656 0.113006 0  0.122953 0.187671 0  0.118362 0.153758 0  0.155372 0.258107 0  0.122953 0.212329 0  0.118362 0.246242 0  0.276394 0.27264 0  0.276394 0.12736 0  0.280965 0.170013 0  0.253125 0.3 0  0.14375 0.1 0  0.253125 0.1 0  0.269489 0.26014 0  0.269489 0.13986 0  0.303639 0.184297 0  0.165625 0.3 0  0.134742 0.273113 0  0.257831 0.274737 0  0.255279 0.128499 0  0.3625 0.1 0  0.165625 0.1 0  0.162031 0.132368 0  0.134955 0.126405 0  0.149334 0.125568 0  0.142936 0.139597 0  0.12695 0.140259 0  0.242514 0.285501 0  0.242514 0.114499 0  0.1 0.125 0  0.117483 0.12555 0  0.11154 0.139776 0  0.121875 0.1 0  0.109143 0.1125 0  0.126805 0.114 0  0.220313 0.29129 0  0.351562 0.287369 0  0.207222 0.2866 0  0.220312 0.10871 0  0.1375 0 0  0.20625 0 0  0.207222 0.1134 0  0.11722 0.17118 0  0.1 0.1625 0  0.0778409 0.16875 0  0.0862762 0.15625 0  0 0.15375 0  0 0.1025 0  0.11722 0.22882 0  0.1 0.2375 0  0 0.3075 0  0.0862762 0.23125 0  0.0598995 0.222547 0  0.0860223 0.2125 0  0.289584 0.181469 0  0.300267 0.16446 0  0.163832 0.269071 0  0.149597 0.273325 0  0.1 0.275 0  0.268498 0.285953 0  0.31875 0.3 0  0.294154 0.254672 0  0.296875 0.3 0  0.293558 0.271845 0  0.285095 0.286799 0  0.324298 0.264316 0  0.307866 0.263745 0  0.317093 0.234901 0  0.315485 0.281219 0  0.316547 0.250625 0  0.344693 0.243731 0  0.331592 0.251147 0  0.35129 0.270663 0  0.338689 0.263683 0  0.340625 0.3 0  0.249849 0.264383 0  0.265097 0.11422 0  0.284688 0.156136 0  0.242188 0.324017 0  0.0856613 0.2625 0  0.132812 0.0612217 0  0.264062 0.0612217 0  0.198437 0.07598340000000001 0  0.0860223 0.1375 0  0.0794526 0.191089 0  0.285228 0.140397 0  0.298655 0.148737 0  0.31875 0.1 0  0.327335 0.15374 0  0.296875 0.1 0  0.312289 0.155283 0  0.313348 0.135607 0  0.321802 0.173916 0  0.298433 0.134116 0  0.112124 0.2625 0  0.127526 0.259083 0  0.121875 0.3 0  0.0682687 0.241503 0  0.1 0.2875 0  0.117762 0.28125 0  0.107813 0.3 0  0.103906 0.313849 0  0.0778409 0.28125 0  0.1375 0.41 0  0.0862762 0.29375 0  0.08886860000000001 0.24375 0  0.307812 0.338778 0  0.307812 0.292227 0  0.33216 0.279164 0  0.387888 0.266414 0  0.264063 0.31948 0  0.110937 0.07598340000000001 0  0.242188 0.07598340000000001 0  0.319914 0.11839 0  0.340625 0.1 0  0.334448 0.133793 0  0.329687 0.108539 0  0.346259 0.118491 0  0.360334 0.173636 0  0.327539 0.205033 0  0.132812 0.288712 0  0.362436 0.278836 0  0.368105 0.259418 0  0.4125 0.41 0  0.329687 0.324017 0  0.329687 0.292306 0  0.285938 0.318952 0  0.417187 0.338778 0  0.324481 0.14148 0  0.351562 0.106771 0  0.40625 0.1 0  0.341028 0.168342 0  0.319221 0.190479 0  0.335292 0.184501 0  0.305563 0.20794 0  0.220313 0.31948 0  0.132812 0.332772 0  0.0865876 0.311259 0  0.0598995 0.302453 0  0.0906541 0.343255 0  0.353543 0.255837 0  0.36574 0.237633 0  0.405007 0.254279 0  0.275795 0.352123 0  0.4125 0 0  0.35493 0.137394 0  0.366563 0.120618 0  0.35917 0.205246 0  0.198438 0.318952 0  0.0626109 0.263892 0  0.40625 0.3 0  0.354809 0.155936 0  0.386512 0.146872 0  0.373101 0.159939 0  0.384375 0.1 0  0.343394 0.19929 0  0.350682 0.185683 0  0.368101 0.189748 0  0.344016 0.221511 0  0.391108 0.213329 0  0.376279 0.204783 0  0.398843 0.182768 0  0.375804 0.222746 0  0.390665 0.196958 0  0.394004 0.23518 0  0.359883 0.222828 0  0.419908 0.204359 0  0.404243 0.204783 0  0.412615 0.224526 0  0.20625 0.41 0  0.165625 0.325257 0  0.0347982 0.244954 0  0.379558 0.247154 0  0.34165 0.147603 0  0.372264 0.136992 0  0.388988 0.121989 0  0.373437 0.108554 0  0.351562 0.31948 0  0.391367 0.16527 0  0.399572 0.223324 0  0.452011 0.227371 0  0.40877 0.239392 0  0.431491 0.237337 0  0.421224 0.250459 0  0.449619 0.262098 0  0.418865 0.276779 0  0.437063 0.252274 0  0.415673 0.263227 0  0.430988 0.266772 0  0.402767 0.273419 0  0.452967 0.244883 0  0.428125 0.3 0  0.408502 0.286186 0  0.384375 0.3 0  0.392267 0.285807 0  0.465927 0.219339 0  0.43489 0.283846 0  0.376424 0.286289 0  0.625 0.3 0  0.473533 0.205186 0  0.461713 0.255517 0  0.5375 0.3 0  0.465725 0.235405 0  0.44631 0.201425 0  0.471875 0.3 0  0.494307 0.227729 0  0.459448 0.206736 0  0.462294 0.180792 0  0.478933 0.227536 0  0.486793 0.21381 0  0.486322 0.251373 0  0.50065 0.215318 0  0.54005 0.175389 0  0.474633 0.189893 0  0.512916 0.208697 0  0.49531 0.199967 0  0.475889 0.175275 0  0.625 0.1 0  0.459311 0.153933 0  0.513645 0.242704 0  0.392892 0.248539 0  0.374815 0.271913 0  0.365974 0.14871 0  0.395312 0.109184 0  0.417061 0.123981 0  0.483196 0.277003 0  0.381967 0.179632 0  0.429898 0.219374 0  0.433473 0.206165 0  0.43149 0.181038 0  0.444208 0.215487 0  0.472985 0.247309 0  0.49375 0.3 0  0.475579 0.262714 0  0.49916 0.274293 0  0.501175 0.184809 0  0.514164 0.225681 0  0.543648 0.214977 0  0.5341630000000001 0.23481 0  0.527396 0.216171 0  0.5375 0.1 0  0.534548 0.202315 0  0.561545 0.192513 0  0.5494289999999999 0.201221 0  0.570923 0.218346 0  0.412582 0.149833 0  0.489327 0.264745 0  0.502439 0.254775 0  0.462391 0.271166 0  0.496775 0.241732 0  0.5294410000000001 0.268606 0  0.482812 0.291099 0  0.46879 0.285038 0  0.452663 0.284065 0  0.51789 0.257882 0  0.53408 0.252026 0  0.560142 0.243543 0  0.545708 0.243474 0  0.547532 0.229019 0  0.55282 0.265323 0  0.398971 0.153424 0  0.400349 0.135684 0  0.410135 0.168145 0  0.428823 0.161323 0  0.415266 0.183779 0  0.329687 0.0810483 0  0.395312 0.0612217 0  0.373437 0.318952 0  0.439062 0.324017 0  0.561816 0.229354 0  0.585029 0.239287 0  0.431827 0.139854 0  0.446796 0.168929 0  0.351562 0.07598340000000001 0  0.395313 0.318944 0  0.54337 0.150762 0  0.460937 0.31948 0  0.418412 0.137529 0  0.428125 0.1 0  0.442783 0.152332 0  0.450742 0.134294 0  0.373437 0.0805201 0  0.384383 0.342558 0  0.482812 0.318952 0  0.429239 0.127457 0  0.444274 0.117405 0  0.426548 0.113815 0  0.49375 0.1 0  0.488954 0.113984 0  0.457973 0.121842 0  0.471621 0.137346 0  0.515625 0.325257 0  0.48125 0.41 0  0.417187 0.07598340000000001 0  0.496363 0.126778 0  0.479043 0.155715 0  0.439062 0.0805201 0  0.481795 0.126919 0  0.471875 0.1 0  0.489227 0.142159 0  0.515625 0.1 0  0.520062 0.147117 0  0.501244 0.161791 0  0.505431 0.112984 0  0.505344 0.14029 0  0.526563 0.119081 0  0.5181750000000001 0.131908 0  0.539868 0.136937 0  0.460937 0.108383 0  0.474242 0.114415 0  0.460937 0.0810483 0  0.487841 0.167168 0  0.526563 0.0612217 0  0.526563 0.106406 0  0.537619 0.112743 0  0.58125 0.1 0  0.559375 0.1 0  0.482812 0.08105569999999999 0  0.471883 0.0587655 0  0.570312 0.129396 0  0.548437 0.07598340000000001 0  0.504687 0.08105569999999999 0  0.49375 0.0470127 0  0.570312 0.112663 0  0.592798 0.12103 0  0.553986 0.12103 0  0.570312 0.0805201 0  0.48125 0 0  0.114787 0.2 0  0.160769 0.284765 0  0.175816 0.288361 0  0.162602 0.116048 0  0.154687 0.07598340000000001 0  0.176562 0.0805201 0  0.0598995 0.147547 0  0.307812 0.109924 0  0.291279 0.117157 0  0.278491 0.112989 0  0.285937 0.07598340000000001 0  0.307812 0.0805201 0  0.296928 0.196743 0  0.318141 0.218507 0  0.330208 0.227509 0  0.301397 0.225668 0  0.302706 0.241401 0  0.292574 0.21424 0  0.282762 0.230935 0  0.284351 0.244775 0  0.269553 0.23261 0  0.278572 0.217242 0  0.226924 0.342606 0  0.446928 0.185396 0  0.515625 0.3 0  0.504687 0.288879 0  0.515256 0.276534 0  0.529479 0.285328 0  0.58125 0.3 0  0.541969 0.272936 0  0.559375 0.3 0  0.556796 0.282529 0  0.543473 0.287206 0  0.581429 0.267774 0  0.566728 0.271171 0  0.570869 0.255585 0  0.577404 0.283865 0  0.603125 0.3 0  0.597531 0.28035 0  0.570312 0.338778 0  0.592188 0.292492 0  0.603513 0.256094 0  0.614063 0.286265 0  0.610329 0.27064 0  0.632708 0.251285 0  0.657223 0.261594 0  0.618789 0.257807 0  0.614188 0.22987 0  0.630935 0.265614 
[...]
<PointData  Scalars="p"> 
	<DataArray  type="Float64"  Name="p"  format="ascii">
0.0004541180368517465 0.0004349688414552544 -6.525232883661244e-08 -4.355661090587732e-08 0.0005070515394451347 0.0005044616215465738 6.962873932789653e-05 6.807386193283539e-05 -0.00028359505359642676 -0.00029174745159067753 -0.00031045821126196463 -0.00033091477628123 -0.00036516613169729233 -0.00041895043119333475 -0.0005117067946409955 -0.0006504540550100595 -0.0007630437722866424 -0.0009316927564617444 -0.000702191292420207 -0.00031727328700481387 0.0002247021248678832 0.0008921063455351985 0.0014252205940563929 0.0017578092105054164 0.0017500879799487638 0.0014005033493668033 0.0008676822713965386 0.00020009991213220703 -0.0004400420987365195 -0.0007198694531211283 -0.0009005618785246455 -0.0007738478360958009 -0.0006501492742361647 -0.0005159070967021342 -0.00042087323680482303 -0.00036742038885708626 -0.00033261223853332686 -0.000311194404373579 -0.000293345769911855 8.687721783642056e-05 8.334682817586769e-05 0.0011425965206938516 -0.00013956827162908285 -0.00014063913582708877 -4.530738969508426e-05 -0.00017432066067456014 -0.00017422785533640202 2.8303590774892026e-05 -3.472263328365348e-05 0.0007439270516000755 5.7473632617411896e-05 5.676580570928182e-05 4.8701428399307104e-05 0.0008097483241894744 2.1623201813889486e-05 0.0008128854918881729 3.836666529787619e-05 0.001564163221756286 -0.00034901916086229386 -0.00034964058582644033 -0.00030848517939916783 -0.0003061296430287732 0.0015116790444022474 0.0003105841957356218 0.0007194335831225485 -0.00034580998964496324 -0.0004268175142071675 0.0015287890543952138 0.0007361983084638737 -0.0003227640723649405 -0.0004227670967695267 -0.0001249204826334809 -0.0003361735222231677 -0.00013210225758422735 -0.0003371271382246055 -0.00029596060938129646 -0.0006021230931531858 -0.0002089753569925128 0.00020952620872484443 -0.0006078087223403509 -0.0006086151729553061 -0.00031901940853704206 -0.0006125323472337656 -0.0003209091530396469 -0.00029511897301346323 -0.00023112188598866583 0.0011800028434106535 -0.0005088676556772222 -0.0003135957710628381 -0.0005103223114900236 -0.000316341529718906 -0.000301510417653029 0.0003428392033769975 -8.985695548553187e-05 -0.0003095173793900797 -6.315445348883107e-05 -0.0003012833663073452 -0.00039634271120389866 -0.00039889529272534924 0.0011586420556907635 0.001019714637090599 0.0010117604209387804 0.0005472843176936215 0.0010420264472253261 0.0010400194552063868 -0.00020371664932841712 -0.0003192655566816714 -0.00032296847395804867 -0.00030248625438323765 -0.00021802266704879652 -0.0003583557954029713 -0.00022971121750685057 -0.0003632125690477951 -0.00035219036295155157 -0.00012409533527149336 -0.0003411006616284632 -0.0001242471199734274 0.001346765650202438 0.0008685776294019358 0.0002617041949781227 0.0013475678114322762 0.0008786628593840841 -0.00028731266259022505 -0.00029651154812740437 -0.0003142057568125957 -0.00016664891545259902 0.0003367467630653849 -0.00015227568304095407 -0.00030864075717677804 -0.0003124829521323956 -0.0003097747529108406 0.0001913766403511006 0.0005136582577656472 -0.0003035997582474851 -0.0003021026132957868 -0.00020603326191445692 0.00020855734871158373 0.00011171297284337139 0.0004873551010793391 0.000337677061177958 0.0004226606315474953 0.0006416463058494132 -0.00024723710767345807 -0.00024221294447569525 0.0006210480289901735 0.000583665851548138 0.0007066961040349182 0.00044840594859912945 0.0005339996327737618 0.00048183789996552305 -0.00017365300834296967 -0.00024623942813356255 -0.00021648283515677527 -0.00017799974952743234 0.0003741778263475197 0.00019894311496478477 -0.0001985084626438482 0.001081095179975164 0.0009120692034200584 0.000875792173947254 0.0008208906634226571 0.0006777167756370732 0.0005392630936034598 0.001086892032311703 0.0009360513403378773 0.0005141828435755634 0.0008976615021094327 0.0008341921203948323 0.0009922731248820634 -0.0003090884213514215 -0.00031579087163931925 6.204573547118563e-05 0.00031794104168805977 0.0006250871108819914 -0.00024832098479030964 -0.00019747357574023778 -0.0003130246157700832 -0.00019808012351436955 -0.00029907772066738896 -0.0002478741277494801 -0.00030565215670117564 -0.0003043465221409793 -0.0003136892560745799 -0.00027145003387215086 -0.0003120134374275018 -0.0003072830466820831 -0.0003098651361891837 -0.00028738682950780136 -0.0002993578792932102 -0.00021808128050706513 -0.00032473059492412 -0.00024992460079544746 -0.0003155061472281927 -9.510687350913371e-06 0.0007175283581404355 0.00036686884817798554 -8.484621592538596e-06 0.00012895411119194018 0.000694419635350477 0.0009539800210752533 -0.00030969880602492206 -0.00031459806222516163 -0.00020135916799815322 -0.0003132070017527158 -0.0002001556489728387 -0.00031566656065008293 -0.00030854332427909955 -0.000312349298053845 -0.00030496195371033404 0.000698738247422208 0.0006516092151436825 0.000450635229244331 0.0007858423179611217 0.0005677776215006735 0.0005456737544114782 0.00048308629964164985 0.0004529753722010928 0.0005980713702674381 0.00035496771851938394 0.0005465178178985334 0.00084201566088888 -7.40976956076292e-05 -0.00023562695628229362 -0.0002787441132764684 -0.00026540365186908166 -7.802231989267689e-05 0.0004356216772407157 -5.9103800802184345e-06 -0.00027390469215314144 -0.00021348500695867479 -0.00029927575438334957 -0.00023919579475444811 -0.0002698226767610346 -0.0002980150953109843 -0.0003054210171669992 0.0004269210368310662 -0.000268544134188895 -0.0002877196355341698 -7.779638656517838e-05 -0.0001240922673381246 -0.00024324219370033953 -0.00010866952132305407 -0.0001091588858111467 -0.00030766044054132084 -0.00022828534093862412 -0.00018015415737379154 -0.0003086559653969801 -0.00030760866538481996 -0.000306136088498859 -0.0003069074082503674 -1.9417633707307706e-06 0.0003654749409304929 0.0004886014411484259 0.0005277904254542967 0.0004210889652173091 -0.00029971332017835335 -0.00029540554356445267 -0.0002544167093471343 1.548328049651447e-05 -0.00010243986623105435 -0.0002936607585149614 -0.00025903410955289735 -0.00029391496070363854 0.00010402046394844707 0.0006743076522155751 -0.00018088756182134798 -0.00030254854198091146 -0.0002757603233919695 -0.00029025029103186076 -0.00019682344024908453 -0.0003012998018646844 -0.0003001538561570015 -0.00028954849929644895 -0.0003039804359927332 -0.0002694997800155956 -0.00028230225149297066 -0.00026239095149066484 -0.00028568757011775223 -0.000269082395989303 -0.0002701645461877082 -0.0002967108241326219 -0.00023267845489327729 -0.00025363683764902903 -0.0002461540160920363 0.00021228172131731866 0.00023675866625992036 0.0007009883176406083 -0.00028423193341184393 -0.0003066032707718304 -0.00028111876571832524 -0.00024533003121008815 -0.00022784449137217607 -0.00014997466948311032 -0.00027345447459763974 -0.00026212049839011446 -0.00018440144672999542 -0.00025281094975461416 -0.0002204893313403972 -0.0002338940857938843 -0.00018453684123785657 -0.0002139900173457243 -0.0002090915487874574 -0.00023456084562318845 -0.00020991157083561485 -0.0002398460143111628 -0.0001836029836823427 -0.00016303273767758698 -0.00021112181904225702 -0.0002021185464990866 -0.00022727703644041914 -0.00015682834638376168 -0.00018388960132000455 -0.00024123432221691662 3.2390215812257327e-05 -0.00014040525397187085 -0.0001649419366424149 -3.6348280600617217e-05 -0.00015995746332096597 -0.00019084309585979994 -0.00011431058737199915 -0.00010255742981570331 -0.00016675796547527185 -0.000164510283476312 -0.000133540742104296 -0.00011512741486802436 -0.0001205045111556755 -8.772476862669962e-05 -1.6078781720958487e-05 -0.00013883197291295087 -6.255586324405289e-05 -9.697734745277608e-05 -0.00013952817636250827 2.7044538045447392e-05 -0.00017238146884134475 -6.728191655755499e-05 -0.00026995088577864176 -0.00026728454687667894 -0.000292865010321789 -0.00021181223360076603 -0.00021689338561988039 -0.00011605901262062222 -0.00028050567699266685 -0.00022020744194001541 -0.00021214188316547746 -0.00021831457628540294 -0.00019590669806187445 -0.00014641152673585393 -8.533910571234002e-05 -0.00013745688625409005 -9.265507783169599e-05 -8.708278180704349e-05 -6.31271629403301e-05 -7.186237498653326e-06 -2.7629714049823046e-05 -3.627934086973629e-05 -4.021955180818452e-05 -2.1931846013290233e-05 2.1776171697645582e-05 3.3712470273496103e-06 3.392914890847105e-05 -0.0002458805056765328 -0.00011189845850266774 -8.92891060625678e-05 -0.0001563679542131868 -9.999329312415717e-05 -4.33419227604924e-05 -0.00010755972501696184 -0.00013368482381893363 -0.00015774456209245545 -6.141365978165283e-05 -3.1531402311688575e-05 1.2168787390373445e-05 -1.0688400924987115e-05 -3.58482936392246e-06 -6.665989147400319e-06 -0.0002639610271340431 -0.00025307848604099874 -0.0002518603955258596 -0.00022537980139247587 -0.00024156011431622783 -0.00015072927915455424 -0.00011851333936426276 -0.0001563337355923522 -0.0001162991578628658 1.8874270977819406e-05 4.6592927372673205e-05 -0.00021322895516886307 -0.00019493662009674722 -0.00014343695105216602 -0.00014574059051769087 -1.715862926392946e-05 -0.00010628881781458918 -0.0002292606925318622 -0.00016516580451284016 -0.00020105398142613066 -0.00017897806527602376 -0.00015767895183958314 -0.00010618925287357788 -9.190900846539294e-05 -0.00020418630336938772 -0.00016803216125919746 -0.000193617918137466 -8.969632749589277e-05 -0.00010483814026375688 -0.000157114212364411 -0.00014413029837869663 -5.261536815053189e-05 -7.533877744154245e-05 -0.00012711068246829723 -9.599515939870999e-05 -0.00013487330144633624 -0.00012927523060032002 -0.00012206165977210832 -0.0001138472032500925 -0.00011388209077115538 -6.186766909133649e-05 -5.770286822421424e-05 -9.142801456928792e-05 -7.768001565190232e-05 -8.424476845613945e-05 -5.115348493051309e-05 -6.292582651969409e-05 -2.643993309347253e-05 -0.00013915955474249348 -0.00012269022433969594 -0.0001148077270718989 -0.00011668572475732934 -5.129764421855904e-05 -5.184745722268656e-05 -3.644493739860239e-05 4.535951232066335e-07 -1.8040236957697994e-05 -8.59805892228996e-05 -9.252612177642403e-05 9.3357095612121e-06 -3.1977511531230164e-05 -7.395746550459915e-05 -7.009204951974631e-05 -5.378149747526728e-07 2.4199957835291645e-05 -1.5110188535940668e-05 -1.9903376745934165e-05 -8.703448290048801e-05 0.0013121111662548197 0.0002013593464803401 2.0094101766950137e-05 0.0001560727515238405 0.0003015583695169842 0.00019712984901662669 0.0007203947318197409 -0.0002466993878242263 -0.0002633003688041244 -0.0002407942644067191 -9.137481517704077e-05 -0.00013050577584037862 -0.00030515176861875705 -0.00030910874226184796 -0.00030986535814307074 -0.0003117679472787043 -0.0003145185374811005 -0.000306336966589009 -0.0003125647461879673 -0.00031397385453692044 -0.00031397771069762397 -0.0003053082585897091 9.475782379005428e-05 -0.00019135872315219221 -6.117353303069049e-05 -7.910486039472483e-05 -6.44297609121708e-05 -4.489475169914847e-05 3.0579820877696024e-06 -2.4687231628583155e-05 -1.3364238100888297e-05 -9.717400506949884e-06 -2.620784421425156e-05 2.6322428920924155e-05 7.603264549491541e-06 2.0926278979466955e-05 1.0581325057038668e-05 1.9420222053647768e-05 3.2041212671673424e-05 -2.1128524518934784e-05 1.759835511228497e-05 5.53210591837013e-05 3.7462897688037824e-05 4.9251163314058654e-05 7.90444127355927e-05 8.165887588575247e-05 6.552331300846218e-05 7.715032374014227e-05 6.669630082974927e-05 7.64757290514021e-05 4.9561867785105014e-05 9.571311955936277e-05 6.008660383515457e-05 5.07300184592707e-05 6.597169395240908e-05 4.090373398371874e-05 6.625586260691489e-05 -3.3917319573571396e-05 -9.54018194369497e-07 3.986718872424183e-05 4.13628550977149e-05 5.345043214673056e-05 9.249048152135671e-05 1.714179695190208e-05 9.648272715410087e-06 8.407860509268168e-05 5.415663761374864e-05 0.00010262833533014915 6.402063205912795e-05 7.547790916417062e-05 9.753853619288047e-05 9.365776816984094e-05 0.00010876490615913303 8.832136083384694e-05 9.880465451139834e-05 0.00010267982303761999 0.00010592749365025868 0.00010247514450042894 0.00010473643841233936 9.920255899207185e-05 0.0001101277684469896 0.00010093871506616198 8.778429775884332e-05 9.759170268969003e-05 7.385128315587286e-05 6.526849476723461e-05 6.332716620494279e-05 0.000106875733707848 8.40600226448688e-05 8.337644042233093e-05 7.446756355828374e-05 7.523849172591822e-05 8.81193139959134e-05 9.516650652851037e-05 9.33630200471262e-05 9.387150684336175e-05 8.432852587966906e-05 8.417773468230278e-05 0.00010873824532566538 9.807223466919974e-05 6.974075783210383e-05 7.568073173213214e-05 7.901200612728293e-05 7.745557422049043e-05 8.104531298331932e-05 7.566158167371677e-05 7.330973758731441e-05 6.349438156013792e-05 8.052381872486152e-05 6.432487912582105e-05 2.3446233965192115e-05 2.477164357003368e-05 4.4293486749396896e-05 0.00011088712542870854 9.183165786911828e-05 0.00010289291045265697 0.00010161765742257941 5.7687033031017915e-05 2.963928615560678e-05 0.00010084189242042695 4.126373284196346e-05 0.0001058554747555199 0.00010704526957555632 9.972477338654978e-05 0.0001030648435098359 5.599882745008418e-05 1.2429758619289741e-05 4.741403190594021e-05 0.00010752916008637682 0.00010504140208617233 0.00010898746447423397 9.094435263672133e-05 0.00010271236530442475 0.00010050783880813133 0.00010062604758224464 9.711746799480193e-05 9.775361831129931e-05 0.00010329448285096687 0.00011040501933130066 0.00010600911391186888 0.00011105437237929692 0.00011147333576417159 5.2380645959788483e-05 9.34360208157517e-05 0.00010700423944838943 0.00010903407307267164 0.00010946758463023844 0.00011063200775770307 0.00010880424055750897 0.00011028533494200777 0.00010147912652521113 0.00010630042704052776 9.769430702626259e-05 0.00010940506006873693 0.00010760433915176319 0.00010508460774919803 9.616787397586045e-05 0.00010297839777809676 9.574561466752583e-05 4.0855834547681227e-05 8.756848031458659e-05 6.848517870099985e-05 6.148949156539643e-05 9.058661380617782e-05 8.657434611641786e-05 9.516410733216705e-05 0.00010244311890339559 8.283500731692189e-05 8.243281765613636e-05 9.2806790957758e-05 9.375709505251622e-05 9.159966065820859e-05 7.269865081053398e-05 8.456861320150876e-05 8.063633446118739e-05 7.563532482482008e-05 4.521322402617323e-05 5.597997683363749e-05 6.20235726376933e-05 4.878098345835151e-05 5.494637673485539e-05 7.014249317843874e-05 6.797709480160847e-05 3.3366527934579996e-05 4.5145436164756075e-05 5.9447797595551056e-05 4.0942510291100806e-05 1.4704212101741012e-05 3.435005634225109e-05 2.1248598448844768e-05 6.901409966964472e-05 7.435051533077213e-05 7.921657033693738e-05 5.164294816579297e-05 7.067619147480884e-05 3.752737452522395e-05 1.3265315707513498e-05 -2.6046682108194467e-06 2.761444566179591e-05 2.882112359860384e-05 -2.711583223450089e-06 4.449259819689335e-06 9.867395508796751e-06 5.655336109297248e-05 5.567662459909914e-05 6.247215086185555e-05 1.654836351275245e-05 8.233874987442247e-05 4.2423527131253635e-05 5.546507809662173e-06 -1.2145254181250947e-05 3.0194818187679045e-05 1.4558309775603865e-05 5.997715258135385e-05 -9.902925651960626e-06 2.7525297477350897e-05 7.443059967098244e-05 6.868248117129392e-05 2.8355827872061305e-05 4.018674251420878e-05 6.555927178016754e-05 7.159632748030901e-05 6.598890508126134e-05 8.820694247311951e-05 4.132010224721919e-05 8.420675986333898e-05 5.133626821714945e-05 8.938325728840477e-05 7.556601722281198e-05 8.831073303958866e-05 5.787915751293448e-05 7.174464002975995e-05 8.07601859462056e-05 0.0001006868420530756 0.00010111310996645637 9.455819305341826e-05 9.701109173115546e-05 9.759147625683106e-05 0.00010237869950192722 0.00010368353698288818 0.00010550144848669009 0.0001051176847554219 0.0001036033905570734 8.832706644911009e-05 9.73869166911156e-05 -4.773446893934865e-05 -5.996939382966591e-05 -6.132945605174808e-05 -5.054563766361325e-05 -6.239020435840085e-05 -6.560697543865309e-05 -3.3453098498315874e-05 -3.8348575143538656e-05 -1.83901319324832e-05 2.80670297613651e-06 -8.742015589578578e-05 -0.00010213334139658707 4.888977980229673e-05 0.0002669815800610124 -8.70792084663046e-05 3.136384286205759e-05 6.253101874020946e-05 6.185694985047314e-05 0.00010783264286241142 0.00010891321911614701 -1.207367254700113e-05 3.973554759490853e-05 -6.946894043938631e-05 3.344402196971509e-05 8.669209536890711e-05 9.218270574415527e-05 0.00010005259458072414 8.79785832571519e-05 0.00010017953609049259 0.00010477407139804095 6.439799641188936e-05 5.044055198822925e-05 3.2634676378845706e-05 1.5715080051008704e-05 -2.7345710956134398e-05 4.790990451815552e-05 6.195136353705185e-05 -7.520611166534818e-05 0.00012948755779372483 7.517688346479652e-05 4.7267880041356947e-05 0.0001150048316165026 -8.051855027859547e-06 0.0005707717394845417 0.0004608767059484097 -4.081713486733503e-05 6.852408652882868e-05 5.4527431951025175e-05 9.46226355720819e-05 -0.00010698562392168178 -0.00010410548673449337 -6.524936850141707e-05 -8.29332139155207e-05 -2.480499319334905e-05 4.762763985663339e-05 -7.368810372448663e-05 0.00023474018922102976 0.00044216077917635753 0.00042214609542304596 0.0004383467024698122 -8.279073962730863e-05 3.6400213084632937e-05 0.0004176700458380018 0.0004223977220083395 -8.522861381192915e-06 0.0006585518952665146 -5.7700116951683547e-05 -7.835133557527874e-05 1.097770645412238e-05 -2.910112875935058e-06 0.0003087779009600951 0.00048233258045114427 -9.447316694329641e-05 2.909164010149744e-05 2.1872428706181428e-05 0.00037569865588691297 2.3953672672072194e-05 0.0005869491836629034 0.00013388335180496426 0.00011624725373833327 5.9644687883480076e-05 0.00046785642270274195 1.4683658835194257e-05 2.0009482776715297e-06 4.855178874798856e-05 3.6937437272928636e-05 2.8447309690089427e-05 -1.7118539873659752e-05 7.351152839269876e-05 7.08713166550083e-05 8.29589832052265e-05 7.896843353249385e-05 7.677570235156383e-05 7.381624644615407e-05 0.00042629241185632367 -6.931476226833501e-05 5.013888823355999e-06 0.0003979372294724329 0.0005787251893551171 8.584751780272781e-05 7.981890092165686e-05 -7.527699928499826e-05 -5.472478762017623e-05 0.0007610139171565688 0.0004636357660366808 7.769147075842217e-05 0.0006636806138725895 7.879747734939653e-05 8.943033164796184e-05 0.0004892468846116973 7.562344869580348e-05 7.010072800183176e-05 8.574281294747878e-05 0.0004501782157824168 9.190832872774582e-05 0.00045528710704233086 0.0004501468772674264 6.42218984328983e-05 8.477812447233905e-05 8.959688732788393e-05 9.091167405779397e-05 8.370554420051163e-05 9.319693317588815e-05 8.183270752140759e-05 8.89092617667963e-05 8.424787453039294e-05 8.899023796797628e-05 8.982676015163702e-05 8.629655334348685e-05 8.719283686761983e-05 8.832584323874245e-05 8.810965338607996e-05 8.528451687773505e-05 8.158159946694472e-05 8.451948022723037e-05 8.393842399913143e-05 8.647654240212115e-05 8.54907900847385e-05 -2.2756629276361854e-05 5.960065552802929e-05 7.075731764875412e-05 6.249914295209374e-05 6.594926895694762e-05 6.019230915698657e-05 7.203383088179036e-05 6.866309429784714e-05 8.073834522551877e-05 7.510546416362655e-05 9.743050566759008e-05 4.843700550313167e-05 4.5220146994563566e-05 0.0002834472735779701 0.00041497945632374225 0.0003791238030666741 0.0004369378793326394 -3.640150677400114e-05 -6.403616518655979e-05 -1.8992825231941376e-06 0.0004413561547259607 0.0002988672701404093 4.932458924902014e-05 2.658578666279539e-05 0.00040595044349393827 -7.012090773120754e-05 0.0007598007104911188 0.0007280739911297431 7.419875135739667e-05 7.048191090591356e-05 5.799991256941468e-05 6.403491880873612e-05 9.182575279885225e-05 9.434643054419946e-05 8.84805456524432e-05 8.849563232453077e-05 8.536235348126405e-05 8.638278165398675e-05 8.716060051224666e-05 8.811993550540615e-05 8.847282487234824e-05 8.319744703127143e-05 8.609877715430945e-05 8.687359583334374e-05 8.705957288396215e-05 8.812056677049526e-05 8.346622956175923e-05 8.725223474124346e-05 5.598678369915136e-05 8.408046971793247e-05 8