<?xml version="1.0"?>
<VTKFile type="UnstructuredGrid"  version="0.1"  >
<UnstructuredGrid>
<Piece  NumberOfPoints="1289" NumberOfCells="2413">
<Points>
<DataArray  type="Float64"  NumberOfComponents="3"  format="ascii">0 0 0  0 0.41 0  2.2 0.41 0  2.2 0 0  0.1 0.1 0  0.1 0.3 0  0.8 0.3 0  0.8 0.1 0  0.25 0.2 0  0.248976 0.210065 0  0.245948 0.219718 0  0.241038 0.228563 0  0.234448 0.23624 0  0.226448 0.242432 0  0.217365 0.246888 0  0.207571 0.249423 0  0.197468 0.249936 0  0.187467 0.248404 0  0.17798 0.24489 0  0.169395 0.239539 0  0.162062 0.232569 0  0.156283 0.224265 0  0.152293 0.214968 0  0.150257 0.205058 0  0.150257 0.194942 0  0.152293 0.185032 0  0.156283 0.175735 0  0.162062 0.167431 0  0.169395 0.160461 0  0.17798 0.15511 0  0.187467 0.151596 0  0.197468 0.150064 0  0.207571 0.150577 0  0.217365 0.153112 0  0.226448 0.157568 0  0.234448 0.16376 0  0.241038 0.171437 0  0.245948 0.180282 0  0.248976 0.189935 0  1.1 0 0  1.1 0.41 0  0.1 0.2 0  0.45 0.1 0  0.45 0.3 0  0.55 0 0  0.275 0.1 0  0.275 0.3 0  0.275 0 0  0.55 0.41 0  0 0.205 0  0.825 0 0  0.825 0.41 0  0.275 0.41 0  0.1 0.15 0  0.1875 0.1 0  0.1 0.25 0  0.1875 0.3 0  0.132322 0.2 0  0.241426 0.253518 0  0.241426 0.146482 0  0.264574 0.17974 0  0.264574 0.22026 0  0.138434 0.187348 0  0.153372 0.150948 0  0.148413 0.164094 0  0.176495 0.136535 0  0.22768 0.143571 0  0.138434 0.212652 0  0.148413 0.235906 0  0.176495 0.263465 0  0.22768 0.256429 0  0.23125 0.3 0  0.24769 0.24094 0  0.23125 0.1 0  0.24769 0.15906 0  0.26253 0.193641 0  0.190482 0.137872 0  0.166753 0.146661 0  0.157737 0.244461 0  0.190482 0.262128 0  0.203107 0.261264 0  0.253635 0.22977 0  0.203107 0.138736 0  0.253635 0.17023 0  0.261028 0.206206 0  0.167707 0.251809 0  0.143629 0.224191 0  0.215302 0.2591 0  0.270465 0.245894 0  0.215302 0.1409 0  0.270465 0.154106 0  0.284052 0.202587 0  0.14375 0.3 0  0.209375 0.3 0  0.225966 0.278501 0  0.209375 0.1 0  0.225966 0.121499 0  0.211613 0.273759 0  0.211613 0.126241 0  0.143629 0.175809 0  0.1 0.175 0  0.133484 0.164832 0  0.144491 0.249539 0  0.1 0.225 0  0.133484 0.235168 0  0.3625 0.3 0  0.25691 0.253381 0  0.25691 0.146619 0  0.277205 0.188698 0  0.184724 0.275712 0  0.237372 0.268285 0  0.184724 0.124288 0  0.237372 0.131715 0  0.197578 0.273149 0  0.193656 0.286994 0  0.197578 0.126851 0  0.193656 0.113006 0  0.122953 0.187671 0  0.118362 0.153758 0  0.155372 0.258107 0  0.122953 0.212329 0  0.118362 0.246242 0  0.276394 0.27264 0  0.276394 0.12736 0  0.280965 0.170013 0  0.253125 0.3 0  0.14375 0.1 0  0.253125 0.1 0  0.269489 0.26014 0  0.269489 0.13986 0  0.303639 0.184297 0  0.165625 0.3 0  0.134742 0.273113 0  0.257831 0.274737 0  0.255279 0.128499 0  0.3625 0.1 0  0.165625 0.1 0  0.162031 0.132368 0  0.134955 0.126405 0  0.149334 0.125568 0  0.142936 0.139597 0  0.12695 0.140259 0  0.242514 0.285501 0  0.242514 0.114499 0  0.1 0.125 0  0.117483 0.12555 0  0.11154 0.139776 0  0.121875 0.1 0  0.109143 0.1125 0  0.126805 0.114 0  0.220313 0.29129 0  0.351562 0.287369 0  0.207222 0.2866 0  0.220312 0.10871 0  0.1375 0 0  0.20625 0 0  0.207222 0.1134 0  0.11722 0.17118 0  0.1 0.1625 0  0.0778409 0.16875 0  0.0862762 0.15625 0  0 0.15375 0  0 0.1025 0  0.11722 0.22882 0  0.1 0.2375 0  0 0.3075 0  0.0862762 0.23125 0  0.0598995 0.222547 0  0.0860223 0.2125 0  0.289584 0.181469 0  0.300267 0.16446 0  0.163832 0.269071 0  0.149597 0.273325 0  0.1 0.275 0  0.268498 0.285953 0  0.31875 0.3 0  0.294154 0.254672 0  0.296875 0.3 0  0.293558 0.271845 0  0.285095 0.286799 0  0.324298 0.264316 0  0.307866 0.263745 0  0.317093 0.234901 0  0.315485 0.281219 0  0.316547 0.250625 0  0.344693 0.243731 0  0.331592 0.251147 0  0.35129 0.270663 0  0.338689 0.263683 0  0.340625 0.3 0  0.249849 0.264383 0  0.265097 0.11422 0  0.284688 0.156136 0  0.242188 0.324017 0  0.0856613 0.2625 0  0.132812 0.0612217 0  0.264062 0.0612217 0  0.198437 0.07598340000000001 0  0.0860223 0.1375 0  0.0794526 0.191089 0  0.285228 0.140397 0  0.298655 0.148737 0  0.31875 0.1 0  0.327335 0.15374 0  0.296875 0.1 0  0.312289 0.155283 0  0.313348 0.135607 0  0.321802 0.173916 0  0.298433 0.134116 0  0.112124 0.2625 0  0.127526 0.259083 0  0.121875 0.3 0  0.0682687 0.241503 0  0.1 0.2875 0  0.117762 0.28125 0  0.107813 0.3 0  0.103906 0.313849 0  0.0778409 0.28125 0  0.1375 0.41 0  0.0862762 0.29375 0  0.08886860000000001 0.24375 0  0.307812 0.338778 0  0.307812 0.292227 0  0.33216 0.279164 0  0.387888 0.266414 0  0.264063 0.31948 0  0.110937 0.07598340000000001 0  0.242188 0.07598340000000001 0  0.319914 0.11839 0  0.340625 0.1 0  0.334448 0.133793 0  0.329687 0.108539 0  0.346259 0.118491 0  0.360334 0.173636 0  0.327539 0.205033 0  0.132812 0.288712 0  0.362436 0.278836 0  0.368105 0.259418 0  0.4125 0.41 0  0.329687 0.324017 0  0.329687 0.292306 0  0.285938 0.318952 0  0.417187 0.338778 0  0.324481 0.14148 0  0.351562 0.106771 0  0.40625 0.1 0  0.341028 0.168342 0  0.319221 0.190479 0  0.335292 0.184501 0  0.305563 0.20794 0  0.220313 0.31948 0  0.132812 0.332772 0  0.0865876 0.311259 0  0.0598995 0.302453 0  0.0906541 0.343255 0  0.353543 0.255837 0  0.36574 0.237633 0  0.405007 0.254279 0  0.275795 0.352123 0  0.4125 0 0  0.35493 0.137394 0  0.366563 0.120618 0  0.35917 0.205246 0  0.198438 0.318952 0  0.0626109 0.263892 0  0.40625 0.3 0  0.354809 0.155936 0  0.386512 0.146872 0  0.373101 0.159939 0  0.384375 0.1 0  0.343394 0.19929 0  0.350682 0.185683 0  0.368101 0.189748 0  0.344016 0.221511 0  0.391108 0.213329 0  0.376279 0.204783 0  0.398843 0.182768 0  0.375804 0.222746 0  0.390665 0.196958 0  0.394004 0.23518 0  0.359883 0.222828 0  0.419908 0.204359 0  0.404243 0.204783 0  0.412615 0.224526 0  0.20625 0.41 0  0.165625 0.325257 0  0.0347982 0.244954 0  0.379558 0.247154 0  0.34165 0.147603 0  0.372264 0.136992 0  0.388988 0.121989 0  0.373437 0.108554 0  0.351562 0.31948 0  0.391367 0.16527 0  0.399572 0.223324 0  0.452011 0.227371 0  0.40877 0.239392 0  0.431491 0.237337 0  0.421224 0.250459 0  0.449619 0.262098 0  0.418865 0.276779 0  0.437063 0.252274 0  0.415673 0.263227 0  0.430988 0.266772 0  0.402767 0.273419 0  0.452967 0.244883 0  0.428125 0.3 0  0.408502 0.286186 0  0.384375 0.3 0  0.392267 0.285807 0  0.465927 0.219339 0  0.43489 0.283846 0  0.376424 0.286289 0  0.625 0.3 0  0.473533 0.205186 0  0.461713 0.255517 0  0.5375 0.3 0  0.465725 0.235405 0  0.44631 0.201425 0  0.471875 0.3 0  0.494307 0.227729 0  0.459448 0.206736 0  0.462294 0.180792 0  0.478933 0.227536 0  0.486793 0.21381 0  0.486322 0.251373 0  0.50065 0.215318 0  0.54005 0.175389 0  0.474633 0.189893 0  0.512916 0.208697 0  0.49531 0.199967 0  0.475889 0.175275 0  0.625 0.1 0  0.459311 0.153933 0  0.513645 0.242704 0  0.392892 0.248539 0  0.374815 0.271913 0  0.365974 0.14871 0  0.395312 0.109184 0  0.417061 0.123981 0  0.483196 0.277003 0  0.381967 0.179632 0  0.429898 0.219374 0  0.433473 0.206165 0  0.43149 0.181038 0  0.444208 0.215487 0  0.472985 0.247309 0  0.49375 0.3 0  0.475579 0.262714 0  0.49916 0.274293 0  0.501175 0.184809 0  0.514164 0.225681 0  0.543648 0.214977 0  0.5341630000000001 0.23481 0  0.527396 0.216171 0  0.5375 0.1 0  0.534548 0.202315 0  0.561545 0.192513 0  0.5494289999999999 0.201221 0  0.570923 0.218346 0  0.412582 0.149833 0  0.489327 0.264745 0  0.502439 0.254775 0  0.462391 0.271166 0  0.496775 0.241732 0  0.5294410000000001 0.268606 0  0.482812 0.291099 0  0.46879 0.285038 0  0.452663 0.284065 0  0.51789 0.257882 0  0.53408 0.252026 0  0.560142 0.243543 0  0.545708 0.243474 0  0.547532 0.229019 0  0.55282 0.265323 0  0.398971 0.153424 0  0.400349 0.135684 0  0.410135 0.168145 0  0.428823 0.161323 0  0.415266 0.183779 0  0.329687 0.0810483 0  0.395312 0.0612217 0  0.373437 0.318952 0  0.439062 0.324017 0  0.561816 0.229354 0  0.585029 0.239287 0  0.431827 0.139854 0  0.446796 0.168929 0  0.351562 0.07598340000000001 0  0.395313 0.318944 0  0.54337 0.150762 0  0.460937 0.31948 0  0.418412 0.137529 0  0.428125 0.1 0  0.442783 0.152332 0  0.450742 0.134294 0  0.373437 0.0805201 0  0.384383 0.342558 0  0.482812 0.318952 0  0.429239 0.127457 0  0.444274 0.117405 0  0.426548 0.113815 0  0.49375 0.1 0  0.488954 0.113984 0  0.457973 0.121842 0  0.471621 0.137346 0  0.515625 0.325257 0  0.48125 0.41 0  0.417187 0.07598340000000001 0  0.496363 0.126778 0  0.479043 0.155715 0  0.439062 0.0805201 0  0.481795 0.126919 0  0.471875 0.1 0  0.489227 0.142159 0  0.515625 0.1 0  0.520062 0.147117 0  0.501244 0.161791 0  0.505431 0.112984 0  0.505344 0.14029 0  0.526563 0.119081 0  0.5181750000000001 0.131908 0  0.539868 0.136937 0  0.460937 0.108383 0  0.474242 0.114415 0  0.460937 0.0810483 0  0.487841 0.167168 0  0.526563 0.0612217 0  0.526563 0.106406 0  0.537619 0.112743 0  0.58125 0.1 0  0.559375 0.1 0  0.482812 0.08105569999999999 0  0.471883 0.0587655 0  0.570312 0.129396 0  0.548437 0.07598340000000001 0  0.504687 0.08105569999999999 0  0.49375 0.0470127 0  0.570312 0.112663 0  0.592798 0.12103 0  0.553986 0.12103 0  0.570312 0.0805201 0  0.48125 0 0  0.114787 0.2 0  0.160769 0.284765 0  0.175816 0.288361 0  0.162602 0.116048 0  0.154687 0.07598340000000001 0  0.176562 0.0805201 0  0.0598995 0.147547 0  0.307812 0.109924 0  0.291279 0.117157 0  0.278491 0.112989 0  0.285937 0.07598340000000001 0  0.307812 0.0805201 0  0.296928 0.196743 0  0.318141 0.218507 0  0.330208 0.227509 0  0.301397 0.225668 0  0.302706 0.241401 0  0.292574 0.21424 0  0.282762 0.230935 0  0.284351 0.244775 0  0.269553 0.23261 0  0.278572 0.217242 0  0.226924 0.342606 0  0.446928 0.185396 0  0.515625 0.3 0  0.504687 0.288879 0  0.515256 0.276534 0  0.529479 0.285328 0  0.58125 0.3 0  0.541969 0.272936 0  0.559375 0.3 0  0.556796 0.282529 0  0.543473 0.287206 0  0.581429 0.267774 0  0.566728 0.271171 0  0.570869 0.255585 0  0.577404 0.283865 0  0.603125 0.3 0  0.597531 0.28035 0  0.570312 0.338778 0  0.592188 0.292492 0  0.603513 0.256094 0  0.614063 0.286265 0  0.610329 0.27064 0  0.632708 0.251285 0  0.657223 0.261594 0  0.618789 0.257807 0  0.614188 0.22987 0  0.630935 0.265614 
[...]
<PointData  Scalars="p"> 
	<DataArray  type="Float64"  Name="p"  format="ascii">
0.00045437815042215614 0.0004350547976714131 -5.970095177642953e-08 -4.143871743968456e-08 0.0005073074304728717 0.0005045640871895549 7.001262455952417e-05 6.882767486553498e-05 -0.00028320336188301253 -0.00029142952140601196 -0.00031007357857144093 -0.00033034040551917877 -0.00036428379988983814 -0.00041775628362560947 -0.0005102085276717115 -0.0006489091261080728 -0.000761675780112092 -0.0009308672985607803 -0.0007021657628071321 -0.00031774427556668954 0.00022393122243257675 0.0008914436725475624 0.0014247869505752493 0.001757809540300106 0.0017505186024903239 0.001401384391909289 0.0008688508620056458 0.00020150265580975762 -0.00043854947846307417 -0.0007187525132472102 -0.0008997991197649243 -0.0007736176010170512 -0.0006501732087499973 -0.0005161092202034419 -0.00042104296091992273 -0.0003674348680530926 -0.00033235000072124585 -0.0003107482020462312 -0.0002928629517111001 8.573771047612805e-05 8.343359751967926e-05 0.001142813684404383 -0.00013947550979408454 -0.00014181639198281287 -4.504949300304396e-05 -0.00017374709925848785 -0.00017430971402247332 2.8279023779452767e-05 -3.483745860724784e-05 0.0007441280648168472 5.820240645842767e-05 5.714456838410221e-05 4.9609992234485756e-05 0.0008100993693685841 2.1807337066565004e-05 0.0008129711623614189 3.859385332573331e-05 0.0015643704678288172 -0.0003480729881275558 -0.00034983073561652264 -0.00030806049672239155 -0.00030571104276780624 0.0015121885606550491 0.0003114338099544216 0.0007203721410387442 -0.00034520295235044906 -0.0004270283039199296 0.0015287080439474383 0.0007357894596646646 -0.0003224409775395098 -0.00042142967596483816 -0.0001247257281009378 -0.00033545030732544064 -0.00013196666668214522 -0.000337117291054688 -0.0002955180254653344 -0.0006016515118002247 -0.00020802548211464573 0.0002091255478108718 -0.0006070252152183355 -0.0006072513878481092 -0.0003184795489242953 -0.0006124361463305342 -0.0003206521989994597 -0.00029472791097323554 -0.00023125083674612208 0.0011796310700235057 -0.0005073956529621309 -0.00031312782947871446 -0.0005104518356949726 -0.00031598711176089415 -0.0003010651179536104 0.0003429868768088232 -8.954941280460209e-05 -0.0003087523330585419 -6.303935984299983e-05 -0.00030123976543727603 -0.0003954332408112558 -0.00039878494760171645 0.0011594767876808923 0.0010200328034088257 0.0010123517377772177 0.0005471533044867221 0.001042138405401836 0.0010398921669368948 -0.00020581799996295124 -0.00031871221586708286 -0.00032297157352662546 -0.00030197724708674233 -0.00021761584950305562 -0.0003573590297881795 -0.00022934722666820436 -0.00036327455858285414 -0.00035152423186143866 -0.00012369964795676247 -0.00034090495867678596 -0.0001240452769198604 0.0013471398750634492 0.0008689968308468896 0.0002616504582506025 0.0013476320723473452 0.000878687804916595 -0.0002876487733735738 -0.0002955118946220212 -0.00031360814064179926 -0.0001664950511064223 0.0003369642965833788 -0.0001520051117744977 -0.00030848895110877983 -0.0003120063789417927 -0.0003090697311399531 0.00019155927083431334 0.0005137561918256387 -0.00030356834066253664 -0.00030183158125666944 -0.00020495321884779732 0.0002087607109223502 0.00011221104896677624 0.0004877130281370805 0.000338045677905821 0.00042322414912233073 0.0006420747428809367 -0.0002470122328595212 -0.00024195646627187293 0.0006213605724212079 0.0005839976901807349 0.0007070598618841073 0.00044865392913192356 0.0005342869528270789 0.00048212836087450456 -0.00017325923737704322 -0.0002482661127537849 -0.00021597146635267837 -0.00017789516282666504 0.0003742904302778629 0.00019889394125454448 -0.0001983728384104438 0.0010814905729026728 0.0009124128424161593 0.0008760903369311429 0.0008212025903637448 0.0006779944659527405 0.0005395581136256872 0.0010869438579775195 0.0009361518550331678 0.0005142620028040709 0.0008977883884411234 0.0008343570179656305 0.0009924635227590351 -0.00030845516041156734 -0.00031476934260862345 6.216454862865365e-05 0.00031803236158311473 0.0006251809445167532 -0.0002486417802696664 -0.00019813264844365964 -0.0003127863388101227 -0.00019837987248208234 -0.0002993284839510845 -0.00024834278448985375 -0.0003061790268420065 -0.00030437396677148576 -0.0003138081142154054 -0.0002719772011595353 -0.0003121111763790906 -0.0003089866797786446 -0.0003106979783639951 -0.0002896214239794545 -0.00030069220161003864 -0.00021939014263556227 -0.00032421487433984046 -0.0002492901154277384 -0.00031472355482439296 -9.238212059367903e-06 0.0007176297584991865 0.00036702448304160306 -8.469054548367777e-06 0.0001290518428720287 0.0006947393425088613 0.0009542165261129583 -0.00030867378933660246 -0.00031331300176179005 -0.00020027794527971947 -0.00031149451019573727 -0.00019922227193934006 -0.0003142049495997331 -0.0003066509921743351 -0.00031127013744151313 -0.00030340685441765207 0.0006988146411112591 0.0006516407836697951 0.0004507556926786384 0.0007859629541667886 0.0005678851030316733 0.0005457783736786562 0.0004831947868126868 0.0004530821199226241 0.0005981614288635507 0.00035517735605309 0.0005466141391894781 0.0008421255198022951 -7.373210608460497e-05 -0.00023607719912204392 -0.0002798155053137015 -0.0002704163781645161 -7.76636335455905e-05 0.00043583201915970647 -5.868337853670413e-06 -0.0002721104290493609 -0.00021225869687073893 -0.0002972466753296173 -0.00023776625012820294 -0.0002680581235228027 -0.0002968595898401683 -0.00030535221256815893 0.0004270330957651193 -0.000271469819384002 -0.0002914941834439293 -7.831644073987193e-05 -0.00012449333704841293 -0.0002443143735345062 -0.00010837584667779048 -0.00011026250885838263 -0.0003057699062706126 -0.00022697093801958145 -0.00017945777855708761 -0.0003072828273300811 -0.0003070435920937803 -0.00030543030273703274 -0.00030658909656726657 -1.8223006287941434e-06 0.00036559228361066255 0.0004887017922041272 0.0005278703100788026 0.00042116677875580827 -0.00030220076888744343 -0.0002985763952822271 -0.0002599931073718394 1.632368344210612e-05 -0.00010149531861728284 -0.00029165133005741123 -0.00025757721894740387 -0.00029472638838329794 0.00010411985865175241 0.000674409523952853 -0.00018377340486199682 -0.0003007162066973741 -0.0002739348657997511 -0.0002885411338500898 -0.0001958357424115245 -0.0003013640162480727 -0.00029958099760324743 -0.000289460019434674 -0.00030509196690808285 -0.0002721045611733229 -0.00028363769997025504 -0.00026202930783715696 -0.00028857921831536466 -0.0002699391496538063 -0.0002748003863808056 -0.0002987293731205018 -0.00023443777950951303 -0.0002554993552191912 -0.0002501807242260894 0.00021286341039538799 0.000236852007723267 0.000701119836939715 -0.0002887522061541055 -0.00030463594963344603 -0.00027919488004580687 -0.00024392330920160502 -0.00022668216945975924 -0.00015108328074137109 -0.00027203660139851396 -0.0002659140911037513 -0.00018666465094351257 -0.0002579356947072623 -0.0002247610320715062 -0.00023899416759232478 -0.00018698620403907287 -0.00021812955980467068 -0.00021309347779603567 -0.00023973290487653472 -0.00021409159679277727 -0.0002448491831431632 -0.00018600763546843942 -0.00016517206581331706 -0.00021515215428372805 -0.00020487500987336767 -0.0002312257697407007 -0.00015768664928518162 -0.0001869580770991608 -0.00024458188365621256 3.375427399417139e-05 -0.00014059226689743933 -0.0001660890342852177 -3.446366052498674e-05 -0.0001609812031516151 -0.00019193966559880762 -0.00011432256725009344 -0.00010097060618938946 -0.00016756551519180488 -0.00016452024172443976 -0.00013330696777952286 -0.00011451048102570841 -0.00011898582032158736 -8.626707610783707e-05 -1.6461779882669756e-05 -0.00013891504545219087 -6.090896527492184e-05 -9.6421869607704e-05 -0.00013982963438104203 2.7499584914561554e-05 -0.00017248289760173638 -6.375693990808133e-05 -0.00027517344945257783 -0.0002712930520647756 -0.00029091987162979183 -0.000210779781474505 -0.00021621818536230798 -0.00011473393628380972 -0.00027980766662503683 -0.00022336178113397664 -0.0002138793450897048 -0.00021804958835061814 -0.00019803431821940594 -0.00014643888733128563 -8.433630918220425e-05 -0.00013690870059922253 -9.031495766261356e-05 -8.720936707284366e-05 -6.0281221569623225e-05 -4.300460765557245e-06 -2.3608390267504526e-05 -3.359166558838721e-05 -4.0459420309242956e-05 -2.026086429569971e-05 2.2902847084048866e-05 5.1194402799622605e-06 3.687740101600279e-05 -0.00024451615053079184 -0.00011002326250854545 -8.628453216337545e-05 -0.00015718256359929637 -9.770455778571045e-05 -3.961723329932997e-05 -0.0001067208028787995 -0.00013378646266296363 -0.0001590559380312226 -5.749603020493012e-05 -2.7267624111071083e-05 1.622237321427843e-05 -6.471700448588366e-06 2.0244807904007954e-07 -2.895590119020644e-06 -0.00026235941151500636 -0.00025161622517482337 -0.0002507649333637653 -0.0002244338879732169 -0.00024138379248507592 -0.00015001492411565424 -0.00011763007790936833 -0.0001580070864395776 -0.00011722785909618894 2.2553868195002306e-05 4.9720804580446265e-05 -0.00021254382275007978 -0.00019457199342635446 -0.00014266835239503458 -0.00014771325122125091 -1.8213996993375986e-05 -0.00010696768683487717 -0.0002282541779227347 -0.00016473031560292436 -0.0002005732382285023 -0.00017907770964202253 -0.00015672643860241818 -0.00010736512997176703 -9.194523280630843e-05 -0.00020360527220797406 -0.00016804787066102518 -0.00019318276361752343 -9.007984152505307e-05 -0.00010558365137112591 -0.0001573848779624956 -0.00014492235555277198 -5.2539545846358706e-05 -7.593303053298301e-05 -0.00012618228578812295 -9.713442964111504e-05 -0.00013564659113252938 -0.0001288574744333839 -0.00012304558527020352 -0.000114013070756256 -0.00011508014328045307 -6.226487616523604e-05 -5.916854686455859e-05 -9.257970587546657e-05 -7.850328441377414e-05 -8.57251078879273e-05 -5.2100922154828456e-05 -6.427731970084918e-05 -2.751925107183015e-05 -0.0001393670850121801 -0.0001233070955483902 -0.00011450160033427163 -0.00011738838585512329 -5.096080487751282e-05 -5.2393616408957824e-05 -3.7042889792977995e-05 5.356834852187437e-07 -1.8221809071852057e-05 -8.571656834147579e-05 -9.197275716055175e-05 9.171456932042343e-06 -3.190928622671856e-05 -7.383959002516033e-05 -6.945501220278809e-05 -6.013568770401015e-07 2.453670349977956e-05 -1.5587239804658696e-05 -1.9925889697726997e-05 -8.639886253982951e-05 0.0013123324051038166 0.00020152168585132574 2.034756539449987e-05 0.0001563965754263397 0.00030170454712617225 0.00019726282097957907 0.0007206970528054733 -0.00024521586346924523 -0.0002619681996748283 -0.00023983681029705414 -9.107281868277138e-05 -0.00013002676960158137 -0.0003046496584333248 -0.00030915029616919367 -0.000310428367983906 -0.0003115106772528852 -0.00031428052434225647 -0.000305980383384251 -0.00031213989590337385 -0.0003135753658761889 -0.00031349199170901243 -0.00030490191443183543 9.499723573766459e-05 -0.00019147938265741957 -5.972123661826569e-05 -7.723397851974102e-05 -6.1252582668297e-05 -4.209425819130958e-05 4.834092810479282e-06 -2.115815736076665e-05 -1.1525905917493842e-05 -6.939124513817387e-06 -2.3587447774941464e-05 2.917794296386375e-05 1.0656787842331791e-05 2.4487882439178347e-05 1.3022387790192854e-05 2.099646639189761e-05 3.394065004719646e-05 -2.0531572546851994e-05 1.9475389547508402e-05 5.7519023366074845e-05 3.90843432863507e-05 5.1047358522482936e-05 8.016436056196637e-05 8.219084796309376e-05 6.709397354787729e-05 7.900925944499205e-05 6.784093176623277e-05 7.805134743783358e-05 5.054151107113186e-05 9.667647958910149e-05 6.077114024135694e-05 5.191521982708229e-05 6.682860672245918e-05 4.21551643395641e-05 6.695733799391137e-05 -3.324873341355468e-05 2.565875117890256e-07 4.2143440045008176e-05 4.424044932016107e-05 5.438749583691526e-05 9.2517058922704e-05 1.8450987890542222e-05 1.1037426437957818e-05 8.441176263212224e-05 5.494026799784038e-05 0.00010286655873345475 6.469915776306872e-05 7.583015555175476e-05 9.762637434654483e-05 9.400782600081245e-05 0.00010865917357369255 8.898074946769897e-05 9.93650642156107e-05 0.00010257458035288664 0.00010666791555195122 0.00010265885154140331 0.0001052525615531354 9.901829024044318e-05 0.00011045361623761026 0.00010064628277797653 8.77906855133232e-05 9.739733017295224e-05 7.421714177549478e-05 6.596806810565747e-05 6.390463346409851e-05 0.0001065850597950287 8.417897665135977e-05 8.350140103224864e-05 7.479859210679094e-05 7.561163585017224e-05 8.81998023536191e-05 9.533167984257563e-05 9.326081391479148e-05 9.376462022911827e-05 8.442328747641758e-05 8.440744867083587e-05 0.00010856525422099251 9.7976142817891e-05 7.016736142966862e-05 7.600018734208377e-05 7.932095993324503e-05 7.775401431142894e-05 8.128407851029446e-05 7.590930994346646e-05 7.351732271748664e-05 6.379828552689031e-05 8.084435400525947e-05 6.491186931764049e-05 2.4876013629831415e-05 2.6143352206545772e-05 4.536374951227756e-05 0.00011086047188915144 9.189371395387587e-05 0.00010265797869833675 0.00010171556329040518 5.827227463260721e-05 3.093265791160398e-05 0.00010166582959994988 4.228826777557401e-05 0.00010555491027767016 0.00010691245881717017 9.976649839400674e-05 0.00010293514078534224 5.6795098804072374e-05 1.3894116723771619e-05 4.837493657451204e-05 0.00010788841861842483 0.0001050842184014557 0.00010906941817020289 9.120504609342512e-05 0.0001028508928161582 0.00010073803242529025 0.00010083512686757324 9.744060999194239e-05 9.796115037181764e-05 0.00010329191887512476 0.00011048448604947136 0.00010655837699657666 0.00011132978150706072 0.00011172543095754961 5.3205024310973505e-05 9.37418487623548e-05 0.00010713539542055334 0.00010981576503669006 0.00010974290823574653 0.00011112893217608643 0.00010946123122252821 0.00011085726316980641 0.00010267947736098312 0.000107250663605896 9.887495330933427e-05 0.00010983965980574193 0.0001082194098152743 0.00010597896985899771 9.693181667582368e-05 0.00010374632629965757 9.671335007147613e-05 4.1448789989417924e-05 8.844558015085796e-05 6.944863252592674e-05 6.239861363761055e-05 9.171247950707626e-05 8.7852249901822e-05 9.65178007922655e-05 0.00010360167642386145 8.416224230932981e-05 8.37684612314196e-05 9.416637188549307e-05 9.493368156149495e-05 9.290216885399051e-05 7.383005963741017e-05 8.576310369381581e-05 8.218867019665796e-05 7.680310348544153e-05 4.5622768276160136e-05 5.689963364718318e-05 6.287373923031584e-05 4.954773959170907e-05 5.5759017069458354e-05 7.13013584752339e-05 6.917586374981835e-05 3.368132142008161e-05 4.591636974196077e-05 6.0381267799910994e-05 4.156695817698505e-05 1.4957059933865556e-05 3.489955655400902e-05 2.110857015586225e-05 7.018139346556458e-05 7.547473089098943e-05 8.019622112656107e-05 5.2333590258689774e-05 7.14886695942977e-05 3.807771958868273e-05 1.3489079180092166e-05 -2.5473877115424233e-06 2.8078976170161083e-05 2.8915770924259783e-05 -3.3208055269740692e-06 3.81727867473595e-06 9.760322852057642e-06 5.732373305428765e-05 5.649247523998475e-05 6.3268579215157e-05 1.7113658196876055e-05 8.3052657988995e-05 4.309282875727988e-05 5.673011908060447e-06 -1.21294254687363e-05 3.07311893506003e-05 1.4774392639377343e-05 6.086446037532272e-05 -9.823149146612411e-06 2.8243713353098495e-05 7.516844202683948e-05 6.948179328358213e-05 2.890140103019803e-05 4.114615911604425e-05 6.638568469978385e-05 7.235761839089449e-05 6.679723724321207e-05 8.875546912978154e-05 4.227846148150414e-05 8.466011393613438e-05 5.239203080159063e-05 8.979667260179065e-05 7.62091026560882e-05 8.861334725353455e-05 5.880020113597236e-05 7.245942271885075e-05 8.135769146056071e-05 0.00010091237968019157 0.00010149690794477677 9.498663736009613e-05 9.733277317436158e-05 9.809720402969419e-05 0.0001026774209722485 0.00010391175254266192 0.00010581855228866125 0.00010528212710311388 0.00010404275057367857 8.890872518265563e-05 9.797215608630923e-05 -4.756433350936126e-05 -5.9701726330008863e-05 -6.187737199653181e-05 -5.007199017467696e-05 -6.309863293752375e-05 -6.690108177885809e-05 -3.459376599993194e-05 -3.863375622806104e-05 -1.7836318074501467e-05 3.294600733048782e-06 -8.795973596747628e-05 -0.00010126861299812502 4.9124283799048483e-05 0.0002670603259630162 -8.652254210403891e-05 3.1935035535404675e-05 6.497830213013447e-05 6.426548773760098e-05 0.00010790987171458534 0.00010869063620798659 -1.102674079854751e-05 4.0651522724401024e-05 -6.966983542254e-05 3.460631082725557e-05 8.693440209587746e-05 9.347919351494761e-05 0.00010104931464333206 8.941456117195145e-05 0.00010129569871276638 0.00010571306406846484 6.5890785000781e-05 5.253003583758943e-05 3.4663268480650645e-05 1.8501774981573074e-05 -2.7333295826553785e-05 4.896406772255641e-05 6.27379842132843e-05 -7.437945947885103e-05 0.0001303980823581522 7.715518888162921e-05 5.0256113425085426e-05 0.00011570050269246306 -6.972863395163414e-06 0.0005710798768073304 0.00046096027059788856 -4.138806884625828e-05 6.830073480127403e-05 5.500471611964691e-05 9.488297484551847e-05 -0.00010614376738547818 -0.00010363479218883873 -6.508454367677991e-05 -8.238060134468098e-05 -2.4562935577320043e-05 4.8458527170255145e-05 -7.279412286935194e-05 0.00023495849551073908 0.00044238508904882083 0.00042219850234458844 0.00043842927478514716 -8.193651822169065e-05 3.7476982783250504e-05 0.000417849072584423 0.0004224798201469107 -7.765434478468835e-06 0.0006586680308750774 -5.725613781364486e-05 -7.898345452369699e-05 1.2367681027589974e-05 -2.9096460393799734e-06 0.0003088765076818908 0.00048241020995818323 -9.352343834031349e-05 3.0250931234002925e-05 2.1938645598476347e-05 0.00037576253025782764 2.523349652178698e-05 0.0005870380087717138 0.00013382073805396637 0.00011621411846293714 5.9596665873618786e-05 0.0004681229724071805 1.51647586278863e-05 2.1633309204883522e-06 4.951587086083956e-05 3.801559904089588e-05 2.9288793285019974e-05 -1.7014187631567967e-05 7.409990640188471e-05 7.127951398309218e-05 8.326187384023532e-05 7.906127243368986e-05 7.619006606372178e-05 7.470948034362048e-05 0.0004263759577124781 -6.967439463927158e-05 6.276110956425977e-06 0.00039803514496920985 0.0005790246347869648 8.588541667819154e-05 8.004916703918376e-05 -7.568559665518762e-05 -5.534306792635265e-05 0.0007612608753425621 0.00046390383786835667 7.789162120700712e-05 0.0006639690473692623 7.894227982974349e-05 8.962834666187536e-05 0.0004895304889046212 7.598482382398884e-05 7.046667174112368e-05 8.603222987658949e-05 0.0004504357338987468 9.221737249843439e-05 0.0004555467171980812 0.000450399850900715 6.474071071857805e-05 8.443159819274494e-05 8.951039900635952e-05 9.117311138776504e-05 8.357589776565714e-05 9.336260003350726e-05 8.176419525401371e-05 8.81325951546726e-05 8.36208872429676e-05 8.875088316499787e-05 8.975013660874108e-05 8.57703134493848e-05 8.665210258423429e-05 8.774081070845516e-05 8.798460436706538e-05 8.43525025184129e-05 8.135266243632409e-05 8.39149595490578e-05 8.334647028037554e-05 8.544862253997893e-05 8.457162977568938e-05 -2.2313443744276138e-05 5.9995618920563465e-05 7.046077210959878e-05 6.261523170166656e-05 6.60231631322766e-05 6.046371943146854e-05 7.205775079854056e-05 6.844964345745108e-05 8.054188444891646e-05 7.451170899100607e-05 9.760771848419455e-05 4.910598836388317e-05 4.6001997007875566e-05 0.0002837775755519014 0.0004151700000719551 0.00037926148931914075 0.0004371678383010009 -3.613381585738444e-05 -6.428778307278265e-05 -6.77187458128821e-07 0.0004414415612966687 0.00029892216152186784 5.022455514175564e-05 2.7400881616912773e-05 0.0004059943521321212 -7.06749606535177e-05 0.0007599862903456682 0.0007283156525456298 7.445321896254371e-05 7.08510244666103e-05 5.87542295620748e-05 6.456977817514316e-05 9.193237737017626e-05 9.464472064315661e-05 8.849306936452563e-05 8.850306511994804e-05 8.530910863144747e-05 8.64831218095368e-05 8.734957036435928e-05 8.847950653867551e-05 8.848332426050464e-05 8.285260009793194e-05 8.592736675614956e-05 8.679240515818975e-05 8.674980025833529e-05 8.786222819983047e-05 8.35777310974865e-05 8.700122760838027e-05 5.597141175955136e-05 8.420074041541447e-0