<?xml version="1.0"?>
<VTKFile type="UnstructuredGrid"  version="0.1"  >
<UnstructuredGrid>
<Piece  NumberOfPoints="1289" NumberOfCells="2413">
<Points>
<DataArray  type="Float64"  NumberOfComponents="3"  format="ascii">0 0 0  0 0.41 0  2.2 0.41 0  2.2 0 0  0.1 0.1 0  0.1 0.3 0  0.8 0.3 0  0.8 0.1 0  0.25 0.2 0  0.248976 0.210065 0  0.245948 0.219718 0  0.241038 0.228563 0  0.234448 0.23624 0  0.226448 0.242432 0  0.217365 0.246888 0  0.207571 0.249423 0  0.197468 0.249936 0  0.187467 0.248404 0  0.17798 0.24489 0  0.169395 0.239539 0  0.162062 0.232569 0  0.156283 0.224265 0  0.152293 0.214968 0  0.150257 0.205058 0  0.150257 0.194942 0  0.152293 0.185032 0  0.156283 0.175735 0  0.162062 0.167431 0  0.169395 0.160461 0  0.17798 0.15511 0  0.187467 0.151596 0  0.197468 0.150064 0  0.207571 0.150577 0  0.217365 0.153112 0  0.226448 0.157568 0  0.234448 0.16376 0  0.241038 0.171437 0  0.245948 0.180282 0  0.248976 0.189935 0  1.1 0 0  1.1 0.41 0  0.1 0.2 0  0.45 0.1 0  0.45 0.3 0  0.55 0 0  0.275 0.1 0  0.275 0.3 0  0.275 0 0  0.55 0.41 0  0 0.205 0  0.825 0 0  0.825 0.41 0  0.275 0.41 0  0.1 0.15 0  0.1875 0.1 0  0.1 0.25 0  0.1875 0.3 0  0.132322 0.2 0  0.241426 0.253518 0  0.241426 0.146482 0  0.264574 0.17974 0  0.264574 0.22026 0  0.138434 0.187348 0  0.153372 0.150948 0  0.148413 0.164094 0  0.176495 0.136535 0  0.22768 0.143571 0  0.138434 0.212652 0  0.148413 0.235906 0  0.176495 0.263465 0  0.22768 0.256429 0  0.23125 0.3 0  0.24769 0.24094 0  0.23125 0.1 0  0.24769 0.15906 0  0.26253 0.193641 0  0.190482 0.137872 0  0.166753 0.146661 0  0.157737 0.244461 0  0.190482 0.262128 0  0.203107 0.261264 0  0.253635 0.22977 0  0.203107 0.138736 0  0.253635 0.17023 0  0.261028 0.206206 0  0.167707 0.251809 0  0.143629 0.224191 0  0.215302 0.2591 0  0.270465 0.245894 0  0.215302 0.1409 0  0.270465 0.154106 0  0.284052 0.202587 0  0.14375 0.3 0  0.209375 0.3 0  0.225966 0.278501 0  0.209375 0.1 0  0.225966 0.121499 0  0.211613 0.273759 0  0.211613 0.126241 0  0.143629 0.175809 0  0.1 0.175 0  0.133484 0.164832 0  0.144491 0.249539 0  0.1 0.225 0  0.133484 0.235168 0  0.3625 0.3 0  0.25691 0.253381 0  0.25691 0.146619 0  0.277205 0.188698 0  0.184724 0.275712 0  0.237372 0.268285 0  0.184724 0.124288 0  0.237372 0.131715 0  0.197578 0.273149 0  0.193656 0.286994 0  0.197578 0.126851 0  0.193656 0.113006 0  0.122953 0.187671 0  0.118362 0.153758 0  0.155372 0.258107 0  0.122953 0.212329 0  0.118362 0.246242 0  0.276394 0.27264 0  0.276394 0.12736 0  0.280965 0.170013 0  0.253125 0.3 0  0.14375 0.1 0  0.253125 0.1 0  0.269489 0.26014 0  0.269489 0.13986 0  0.303639 0.184297 0  0.165625 0.3 0  0.134742 0.273113 0  0.257831 0.274737 0  0.255279 0.128499 0  0.3625 0.1 0  0.165625 0.1 0  0.162031 0.132368 0  0.134955 0.126405 0  0.149334 0.125568 0  0.142936 0.139597 0  0.12695 0.140259 0  0.242514 0.285501 0  0.242514 0.114499 0  0.1 0.125 0  0.117483 0.12555 0  0.11154 0.139776 0  0.121875 0.1 0  0.109143 0.1125 0  0.126805 0.114 0  0.220313 0.29129 0  0.351562 0.287369 0  0.207222 0.2866 0  0.220312 0.10871 0  0.1375 0 0  0.20625 0 0  0.207222 0.1134 0  0.11722 0.17118 0  0.1 0.1625 0  0.0778409 0.16875 0  0.0862762 0.15625 0  0 0.15375 0  0 0.1025 0  0.11722 0.22882 0  0.1 0.2375 0  0 0.3075 0  0.0862762 0.23125 0  0.0598995 0.222547 0  0.0860223 0.2125 0  0.289584 0.181469 0  0.300267 0.16446 0  0.163832 0.269071 0  0.149597 0.273325 0  0.1 0.275 0  0.268498 0.285953 0  0.31875 0.3 0  0.294154 0.254672 0  0.296875 0.3 0  0.293558 0.271845 0  0.285095 0.286799 0  0.324298 0.264316 0  0.307866 0.263745 0  0.317093 0.234901 0  0.315485 0.281219 0  0.316547 0.250625 0  0.344693 0.243731 0  0.331592 0.251147 0  0.35129 0.270663 0  0.338689 0.263683 0  0.340625 0.3 0  0.249849 0.264383 0  0.265097 0.11422 0  0.284688 0.156136 0  0.242188 0.324017 0  0.0856613 0.2625 0  0.132812 0.0612217 0  0.264062 0.0612217 0  0.198437 0.07598340000000001 0  0.0860223 0.1375 0  0.0794526 0.191089 0  0.285228 0.140397 0  0.298655 0.148737 0  0.31875 0.1 0  0.327335 0.15374 0  0.296875 0.1 0  0.312289 0.155283 0  0.313348 0.135607 0  0.321802 0.173916 0  0.298433 0.134116 0  0.112124 0.2625 0  0.127526 0.259083 0  0.121875 0.3 0  0.0682687 0.241503 0  0.1 0.2875 0  0.117762 0.28125 0  0.107813 0.3 0  0.103906 0.313849 0  0.0778409 0.28125 0  0.1375 0.41 0  0.0862762 0.29375 0  0.08886860000000001 0.24375 0  0.307812 0.338778 0  0.307812 0.292227 0  0.33216 0.279164 0  0.387888 0.266414 0  0.264063 0.31948 0  0.110937 0.07598340000000001 0  0.242188 0.07598340000000001 0  0.319914 0.11839 0  0.340625 0.1 0  0.334448 0.133793 0  0.329687 0.108539 0  0.346259 0.118491 0  0.360334 0.173636 0  0.327539 0.205033 0  0.132812 0.288712 0  0.362436 0.278836 0  0.368105 0.259418 0  0.4125 0.41 0  0.329687 0.324017 0  0.329687 0.292306 0  0.285938 0.318952 0  0.417187 0.338778 0  0.324481 0.14148 0  0.351562 0.106771 0  0.40625 0.1 0  0.341028 0.168342 0  0.319221 0.190479 0  0.335292 0.184501 0  0.305563 0.20794 0  0.220313 0.31948 0  0.132812 0.332772 0  0.0865876 0.311259 0  0.0598995 0.302453 0  0.0906541 0.343255 0  0.353543 0.255837 0  0.36574 0.237633 0  0.405007 0.254279 0  0.275795 0.352123 0  0.4125 0 0  0.35493 0.137394 0  0.366563 0.120618 0  0.35917 0.205246 0  0.198438 0.318952 0  0.0626109 0.263892 0  0.40625 0.3 0  0.354809 0.155936 0  0.386512 0.146872 0  0.373101 0.159939 0  0.384375 0.1 0  0.343394 0.19929 0  0.350682 0.185683 0  0.368101 0.189748 0  0.344016 0.221511 0  0.391108 0.213329 0  0.376279 0.204783 0  0.398843 0.182768 0  0.375804 0.222746 0  0.390665 0.196958 0  0.394004 0.23518 0  0.359883 0.222828 0  0.419908 0.204359 0  0.404243 0.204783 0  0.412615 0.224526 0  0.20625 0.41 0  0.165625 0.325257 0  0.0347982 0.244954 0  0.379558 0.247154 0  0.34165 0.147603 0  0.372264 0.136992 0  0.388988 0.121989 0  0.373437 0.108554 0  0.351562 0.31948 0  0.391367 0.16527 0  0.399572 0.223324 0  0.452011 0.227371 0  0.40877 0.239392 0  0.431491 0.237337 0  0.421224 0.250459 0  0.449619 0.262098 0  0.418865 0.276779 0  0.437063 0.252274 0  0.415673 0.263227 0  0.430988 0.266772 0  0.402767 0.273419 0  0.452967 0.244883 0  0.428125 0.3 0  0.408502 0.286186 0  0.384375 0.3 0  0.392267 0.285807 0  0.465927 0.219339 0  0.43489 0.283846 0  0.376424 0.286289 0  0.625 0.3 0  0.473533 0.205186 0  0.461713 0.255517 0  0.5375 0.3 0  0.465725 0.235405 0  0.44631 0.201425 0  0.471875 0.3 0  0.494307 0.227729 0  0.459448 0.206736 0  0.462294 0.180792 0  0.478933 0.227536 0  0.486793 0.21381 0  0.486322 0.251373 0  0.50065 0.215318 0  0.54005 0.175389 0  0.474633 0.189893 0  0.512916 0.208697 0  0.49531 0.199967 0  0.475889 0.175275 0  0.625 0.1 0  0.459311 0.153933 0  0.513645 0.242704 0  0.392892 0.248539 0  0.374815 0.271913 0  0.365974 0.14871 0  0.395312 0.109184 0  0.417061 0.123981 0  0.483196 0.277003 0  0.381967 0.179632 0  0.429898 0.219374 0  0.433473 0.206165 0  0.43149 0.181038 0  0.444208 0.215487 0  0.472985 0.247309 0  0.49375 0.3 0  0.475579 0.262714 0  0.49916 0.274293 0  0.501175 0.184809 0  0.514164 0.225681 0  0.543648 0.214977 0  0.5341630000000001 0.23481 0  0.527396 0.216171 0  0.5375 0.1 0  0.534548 0.202315 0  0.561545 0.192513 0  0.5494289999999999 0.201221 0  0.570923 0.218346 0  0.412582 0.149833 0  0.489327 0.264745 0  0.502439 0.254775 0  0.462391 0.271166 0  0.496775 0.241732 0  0.5294410000000001 0.268606 0  0.482812 0.291099 0  0.46879 0.285038 0  0.452663 0.284065 0  0.51789 0.257882 0  0.53408 0.252026 0  0.560142 0.243543 0  0.545708 0.243474 0  0.547532 0.229019 0  0.55282 0.265323 0  0.398971 0.153424 0  0.400349 0.135684 0  0.410135 0.168145 0  0.428823 0.161323 0  0.415266 0.183779 0  0.329687 0.0810483 0  0.395312 0.0612217 0  0.373437 0.318952 0  0.439062 0.324017 0  0.561816 0.229354 0  0.585029 0.239287 0  0.431827 0.139854 0  0.446796 0.168929 0  0.351562 0.07598340000000001 0  0.395313 0.318944 0  0.54337 0.150762 0  0.460937 0.31948 0  0.418412 0.137529 0  0.428125 0.1 0  0.442783 0.152332 0  0.450742 0.134294 0  0.373437 0.0805201 0  0.384383 0.342558 0  0.482812 0.318952 0  0.429239 0.127457 0  0.444274 0.117405 0  0.426548 0.113815 0  0.49375 0.1 0  0.488954 0.113984 0  0.457973 0.121842 0  0.471621 0.137346 0  0.515625 0.325257 0  0.48125 0.41 0  0.417187 0.07598340000000001 0  0.496363 0.126778 0  0.479043 0.155715 0  0.439062 0.0805201 0  0.481795 0.126919 0  0.471875 0.1 0  0.489227 0.142159 0  0.515625 0.1 0  0.520062 0.147117 0  0.501244 0.161791 0  0.505431 0.112984 0  0.505344 0.14029 0  0.526563 0.119081 0  0.5181750000000001 0.131908 0  0.539868 0.136937 0  0.460937 0.108383 0  0.474242 0.114415 0  0.460937 0.0810483 0  0.487841 0.167168 0  0.526563 0.0612217 0  0.526563 0.106406 0  0.537619 0.112743 0  0.58125 0.1 0  0.559375 0.1 0  0.482812 0.08105569999999999 0  0.471883 0.0587655 0  0.570312 0.129396 0  0.548437 0.07598340000000001 0  0.504687 0.08105569999999999 0  0.49375 0.0470127 0  0.570312 0.112663 0  0.592798 0.12103 0  0.553986 0.12103 0  0.570312 0.0805201 0  0.48125 0 0  0.114787 0.2 0  0.160769 0.284765 0  0.175816 0.288361 0  0.162602 0.116048 0  0.154687 0.07598340000000001 0  0.176562 0.0805201 0  0.0598995 0.147547 0  0.307812 0.109924 0  0.291279 0.117157 0  0.278491 0.112989 0  0.285937 0.07598340000000001 0  0.307812 0.0805201 0  0.296928 0.196743 0  0.318141 0.218507 0  0.330208 0.227509 0  0.301397 0.225668 0  0.302706 0.241401 0  0.292574 0.21424 0  0.282762 0.230935 0  0.284351 0.244775 0  0.269553 0.23261 0  0.278572 0.217242 0  0.226924 0.342606 0  0.446928 0.185396 0  0.515625 0.3 0  0.504687 0.288879 0  0.515256 0.276534 0  0.529479 0.285328 0  0.58125 0.3 0  0.541969 0.272936 0  0.559375 0.3 0  0.556796 0.282529 0  0.543473 0.287206 0  0.581429 0.267774 0  0.566728 0.271171 0  0.570869 0.255585 0  0.577404 0.283865 0  0.603125 0.3 0  0.597531 0.28035 0  0.570312 0.338778 0  0.592188 0.292492 0  0.603513 0.256094 0  0.614063 0.286265 0  0.610329 0.27064 0  0.632708 0.251285 0  0.657223 0.261594 0  0.618789 0.257807 0  0.614188 0.22987 0  0.630935 0.265614 
[...]
<PointData  Scalars="p"> 
	<DataArray  type="Float64"  Name="p"  format="ascii">
0.001832018831741797 0.0016297266430097283 1.7253700242305415e-06 -1.0490444041225562e-05 0.001854498792402817 0.0017116148884512448 0.0004562014658830879 0.0006643603826356053 0.0007760519202033264 0.000760735600676342 0.0007381748171254321 0.0007172663181631274 0.0006888768198822192 0.0006442585587488624 0.0005636291494626873 0.0004414637470289597 0.0003487272319956746 0.00020119472848664503 0.0004523720402162003 0.000858739903529878 0.001421491600750092 0.002108890074218543 0.002659327697827496 0.0030056122346124137 0.0030088500887596897 0.0026678419967720423 0.002138785576129461 0.0014688673482403083 0.0008221538249592125 0.0005318496115094847 0.00033443508137854237 0.0004423402081071745 0.0005438552550235951 0.0006543459878044306 0.0007266178915264553 0.0007582669645404204 0.0007729411254510573 0.0007768529860027738 0.0007789041760768102 0.0005206043582803153 0.00036789727862096723 0.0024204406757021455 0.0008103152956439016 0.0006834017553677792 0.0008447394920350648 0.0009549326774541957 0.0008289418292908991 0.0011912313010883006 0.0006028315667871727 0.0020593186887761625 0.0006588825974906228 0.00041441688024993064 0.0010118684606187462 0.00212526656434425 0.001273254035816711 0.0020524609132206387 0.001143478695652022 0.0028226517513969796 0.0007019701629436453 0.0007863872084274234 0.0007670724855350751 0.0007369964604203879 0.002777419524288478 0.001583135412558272 0.0019930405811371334 0.0009041019588096352 0.0007317434164821941 0.0027728302720524825 0.0019453074982627569 0.0008200107799205109 0.0006425807324034693 0.0009162180235849825 0.0007106178026012148 0.0010529751694807194 0.0007781471351745818 0.0007678819998626408 0.0006282071193152016 0.0010525600396772093 0.001397564885726867 0.0005138189864186778 0.0004911628315532894 0.0007264616865127257 0.0005948758379907287 0.0007742139391827733 0.000758144130995757 0.0009339638175544698 0.0024067607568681883 0.0005719409885578131 0.0007138527284721029 0.0006722533901258776 0.0007794812783271255 0.0007399617752702616 0.0015105472637662882 0.0009783850673375917 0.0007500610116847732 0.001156234589575909 0.0008777937851952921 0.0006847278078142572 0.0008000651726231316 0.002430121053610767 0.002317475524710665 0.002294833942977736 0.0017469173766884677 0.0023004009023920528 0.0022642849536614463 0.0007139657221513229 0.0007162150496366623 0.0007942397797226625 0.0007550361134404454 0.000905037901838263 0.0006931426530871228 0.0010143521758239115 0.0007915037642471827 0.0007513457324155082 0.0009778582348928327 0.0008816575699238232 0.0011119726579051855 0.0026203340848952542 0.0021672798390526527 0.0014396093186632714 0.002600677797298181 0.0021054255907818984 0.0007238169254021075 0.0008153089124867067 0.0007565237688449734 0.0008545239906662179 0.001639410313368178 0.0010043830819083444 0.0007137458030350684 0.0007967204579012969 0.0007287245216919414 0.0013285074648403936 0.0017036870587102636 0.0007244691248932436 0.0008329820184574129 0.0008362208148661409 0.0014884932347494827 0.001381059426397211 0.001785911208553042 0.0016222254950053285 0.0017089591230261146 0.0019409083664130573 0.0007909271212687667 0.0009186106638962488 0.001953536186214726 0.0018996690315723893 0.002019433351409077 0.001774848757891694 0.0018659859115137368 0.0017953159650245672 0.0008857323835120809 0.0006882333342066229 0.0008644056868790761 0.001018626040801997 0.0017029354799706605 0.0014442250863875052 0.001016018129803906 0.002369969170786894 0.0022189897185176098 0.0021952850213807413 0.0021427522646150525 0.002017203883191287 0.0018954190826152913 0.002329651878107868 0.00218526559639286 0.0017594808084681428 0.0021613909041706416 0.0021159541733447433 0.002267038275079135 0.0007443082467627016 0.0007425831594752287 0.0012197571449608193 0.001491164809924412 0.0018463040365749744 0.0007655387594911772 0.0007664810340680614 0.000691677814503287 0.0007893972731643862 0.0006988881297422337 0.000751064008444759 0.000668097388610753 0.0006848359762813724 0.0006803830787266672 0.0007026119659920627 0.0006752043062698894 0.0006558129381165769 0.0006620272286884108 0.0006562001693864835 0.0006600566967554047 0.0007217704144363879 0.0007148516626407621 0.0008841747497033893 0.0007641008771753578 0.0010064398135512795 0.0019590755112796053 0.0016949297474312963 0.0011521638433815125 0.001374451709135198 0.002027481843221376 0.002251574248199778 0.0007827067804495971 0.000757649766997084 0.0008850934580702377 0.0007269879602849712 0.0009068467342417539 0.0007384121719298697 0.0007588727101111894 0.0007172614953023427 0.000778667593865911 0.0019183138184575687 0.0018598986025628599 0.0016413499525545331 0.0020567699442262176 0.0017816731708698514 0.00174788186801979 0.0016844741754565528 0.001653279026623825 0.0018304438104793561 0.0014868241561643465 0.0017664679102193344 0.00209572510009284 0.0008853481408887897 0.0007415007562914009 0.0006798202473115393 0.000642391933416086 0.0009271351778421148 0.0017768907316235557 0.001175958264579052 0.0007998988530945727 0.0008523604264824091 0.0007473707688506225 0.0008321911793850416 0.0007767163610904836 0.0006941527562644486 0.0006973003182799477 0.0016108439866017535 0.0006595037666128686 0.0006437808673714138 0.000754476124151368 0.000816333090406509 0.0007113656620716594 0.0008813587359206935 0.0007382077487857525 0.0007439156523128144 0.0008212725639157385 0.0008123018417490205 0.0007063910561879974 0.0007129069706001893 0.0007033852578497813 0.0007130566874065618 0.001036877897239822 0.0015246797840269804 0.0016982163645143178 0.0017518452947371923 0.0016149834570251729 0.000648155189516154 0.0006515493821602617 0.0006423163913885672 0.0010031179110268306 0.0009529392523189594 0.0007286575641381405 0.0007639385370788577 0.0006790359177613648 0.0011764814934315893 0.0019338188909075247 0.0006940661875326141 0.000707978126750039 0.0007064597715900907 0.0006981801560200985 0.0008226187306124527 0.0006911144030788141 0.0006936168863602033 0.0006842384184839488 0.0006730690178741101 0.0006661718573301385 0.0006738399698007651 0.0006840670245168894 0.0006604677302509721 0.000676965257362561 0.0006489189632036101 0.0006649439135744753 0.0006781050963156968 0.0006728946969457498 0.00065932078203814 0.0012354424767227693 0.0013640913528432934 0.00198849677039299 0.0006430535817972032 0.0007230351580138152 0.0007232015350142974 0.0007524911882851298 0.0007974336337261566 0.0007720124466334662 0.0006920367326872882 0.0006583477459093052 0.0006775681339718109 0.000647560363226846 0.0006566295593848427 0.0006464529179133795 0.0006606897995952186 0.0006559356345032731 0.0006536164540199672 0.0006452786606741478 0.0006514379596504541 0.0006484431541567514 0.0006661678953097136 0.0006863209139780877 0.0006659110639304161 0.000693390849464217 0.0006665302127601702 0.0006933740205142248 0.0006643589023230762 0.0006689259903415463 0.000625371451716886 0.0007094845224791996 0.00066902165438602 0.0006729929603709103 0.0006808152376190428 0.0006925923235860203 0.0006843570506104324 0.0007088492282387317 0.000698001870248481 0.0007145901496878531 0.0006966199362210387 0.0007139544626242308 0.0006850341425108579 0.0007239519588986825 0.0007779119034298038 0.0007204002335719103 0.000738608153050156 0.0007313068206251294 0.0007285176444432135 0.0007692434234901008 0.0007287393770960504 0.000709671528466965 0.000642875926981091 0.0006509233985616457 0.000710529322818743 0.0007883601546449429 0.0007495665340085854 0.0006791887375501734 0.0006852655941124033 0.0006716638289181352 0.0006826453052845015 0.0006948693375133317 0.0006817597105273374 0.0006784917416681567 0.000686441767362306 0.0006757490361142967 0.0006832269746959044 0.0007463532990173132 0.0007258006402413764 0.0007535787885705858 0.0007306886784489775 0.0007436590575719184 0.0008087035102949943 0.0007589961275993704 0.0007760263402175306 0.0007665661298817282 0.0007570388631540778 0.0007077461689031522 0.0006822851620690393 0.0006943300912954448 0.0006682171560235525 0.0006987062675247827 0.0006973255929871948 0.0006813514451081303 0.000676077716558833 0.0006709063513830052 0.0007009552990350419 0.0007141140970670671 0.0007307275569357663 0.0007269358043410861 0.0007417139504448532 0.000705326093520604 0.0007012675544121564 0.0007219468422605531 0.0006918862414961405 0.0007029219063912981 0.0006871473094209816 0.0009371074741978277 0.000924326034485603 0.0007398471532693223 0.0007076220018392824 0.000745972402224046 0.0007366772998492723 0.0007266189288812392 0.0007093692344869708 0.0009291314171518568 0.0007319863490580403 0.0007906200810209941 0.0006973388679222028 0.0007262752109977289 0.0008060873241720862 0.0007182168431536523 0.0007449908834537317 0.0008905980653953191 0.0007683609554697377 0.0006903864723420715 0.0007471805125807985 0.0007753189241083634 0.0007700419966120953 0.0008140582899471322 0.0007932744330490741 0.000768987182940572 0.0007559699581028924 0.0006726942118656107 0.0006682652145855112 0.0008738038513387634 0.000784390502038607 0.0007436487646389975 0.0008451858432217414 0.0007742417834482671 0.0008128528392071265 0.0007634746509157289 0.0008188752889503508 0.000780163415174677 0.0007579343448088888 0.0008038719168941191 0.0007757807613226367 0.0008000203593316887 0.0007879878979344777 0.0007954104939562237 0.0007929526859828508 0.0007916261618849033 0.0008351225870768484 0.0007444012502482068 0.0008462254280672061 0.0008091066313812209 0.0008054722637935377 0.000802608112327878 0.0008079114882424373 0.000842959409933027 0.0008532979586785931 0.0008012662567449299 0.0008240530510987348 0.0008336264514849833 0.0008772509299571774 0.0008048821255112024 0.0007956765272179882 0.0008013475546899138 0.0008098033791234423 0.0008901363880034302 0.0025807563064095553 0.0013533990253084178 0.0011482701591979554 0.0014316588993174392 0.0016014599985514064 0.0014709690576944674 0.0020602606667260402 0.0008451065805083249 0.0008402196023142729 0.0008786153802785422 0.0010386846015699234 0.0009773803674068997 0.0007302649647540901 0.0006932702634706172 0.0006762348597604954 0.0007012005817367737 0.0006887429128637835 0.000720493232093259 0.0007123496374125068 0.0007030561098579531 0.0007198767772310503 0.0007297129423323954 0.0011000014326749555 0.0007020400620788612 0.0006790219077229338 0.0006813397205410192 0.0006895384739765639 0.0006854387008434835 0.0006530996422573767 0.0006963005328135913 0.0006658620356320716 0.0006851441083301475 0.0006831246695280285 0.0007007127800773826 0.0006979852019216035 0.00071693138946566 0.0006783157267308372 0.0006387728789676722 0.0006745743750585793 0.0006163465868643687 0.0006580152959978793 0.0007093195767623426 0.0006543652942230172 0.0006830267038762753 0.0007002259491293012 0.0006674110457951068 0.0006990294128645509 0.0007390493610385962 0.0006792401847671679 0.000719802352536324 0.0005919249218771716 0.0007301241828058259 0.0005470669565899894 0.0006482956545040992 0.0006551803970949237 0.0006088819669757027 0.0006277540353376469 0.0006391964138038723 0.0006184676634325101 0.0006964997907319324 0.0007176068230859232 0.0006146244359151894 0.0006375318818894531 0.0004940457859754348 0.0006044875922890966 0.000645183656066279 0.0005691283230835364 0.0006933580280819556 0.000602096309489407 0.0005936041364310778 0.0006669283077992315 0.0006825579333652451 0.0006699972146477251 0.0006943930949545987 0.0007091415191550291 0.0006603477721138619 0.000732046622611508 0.0005802994005341115 0.0007160496068126851 0.0006347471267320883 0.0007042064906891739 0.0006008510553136129 0.0006010212033580234 0.0006110039086626289 0.0005685758189813493 0.0004995636134384166 0.0005247292629351696 0.0006424219430463579 0.0005566581203005884 0.0005748792377838989 0.0005460449002916877 0.0005277898739850618 0.0005292538165641952 0.000519534487010626 0.0005850116063608643 0.0005595239827923441 0.0005377500727197047 0.0004895152625688662 0.0006333151793348112 0.0005518179375960099 0.00047980401553938886 0.0005077640029768721 0.0004967473836418347 0.00047354911794745543 0.00045590499296235414 0.00045088113973485556 0.0004296122694825091 0.00042760268065805825 0.0006201506297033835 0.000571122366056878 0.0005898459012829664 0.0005278870563616505 0.0004708648359813913 0.0006657202148349087 0.0005224287749571578 0.0005879978695545889 0.0005508657273579011 0.00044421166816498495 0.0005721977884192499 0.0007307617406602333 0.0005248976470661865 0.0006113541981909225 0.0006104324645999422 0.0005481931116057225 0.0005765434314876692 0.00046701815043595024 0.0005496567465581268 0.0005089942553066088 0.0006573006786520732 0.0005939870664051957 0.000639301413011103 0.0004841489544545124 0.0005663552262151736 0.0005426270550149482 0.0005395653585949177 0.0005043738038743731 0.0005177136474430278 0.0005721586978366661 0.000656742630064345 0.0006883811100217257 0.0006790833549720013 0.0006910982730025025 0.0007011866030145065 0.0006377882331358416 0.0006226301459095276 0.0007221067407805067 0.0006615692548544785 0.0007084832622328176 0.000723242696429983 0.0007027464586531697 0.0007529588339559324 0.0007370824178983465 0.0007400454592008075 0.000681571635263722 0.0006992753764851585 0.00072192490423777 0.0007095657023981794 0.0007107909958474239 0.0007246914426368068 0.000722474828374527 0.0007176797618434115 0.0007342733725453211 0.0006832538281889196 0.0007341037712723904 0.0007479381814544328 0.0007543247290512263 0.0007437537600085219 0.0007770938329655344 0.0007671194309633875 0.0007658422374966182 0.0007630749173725106 0.0007700048702890817 0.0007826776733588663 0.0007754687645076079 0.000763013611249021 0.0007838297710905772 0.000795603913853311 0.0007865680964494017 0.0007899079789409412 0.0007840174129406614 0.0007923190123989599 0.0007845719549986249 0.0007757428599575866 0.0007967895866676427 0.0007760811232867496 0.0007533179817928152 0.0007925552269784508 0.0007896175218709122 0.0007866516981403775 0.0007980107269194908 0.0007639859749125943 0.0007536136031184679 0.0007272037681365064 0.0007193078273835524 0.000713810234937982 0.0007407964594377099 0.0007964174945884502 0.0008004362016580584 0.0007806109018664427 0.0007909712889509137 0.0007975354093545297 0.0007925303670800311 0.0007852520940314691 0.0007280850136117431 0.0007368378445809556 0.0007199354484918825 0.0007106902188327758 0.0007006436451628963 0.0007608751435696109 0.0007819311281074427 0.0007859679046290687 0.0007840251405294862 0.0007123810895215206 0.0006964801538590524 0.0007648684470953276 0.000710937554195851 0.0006865460592066758 0.0007032123358021997 0.0007136871791046242 0.0007189579744990837 0.000689236305194842 0.0006809659521352276 0.0006707455833004459 0.0006711557259516249 0.0007010338647770948 0.0006472057039780874 0.0006821863196620924 0.000653961677295186 0.00066127780070575 0.000610324204675659 0.0006710381350138993 0.0006715631884045861 0.0006653551039808528 0.0006128036602632466 0.0006532680793803386 0.0006590720110819432 0.0006431381944532608 0.0006742064203690078 0.0006311481979827465 0.0006082036266806179 0.0006417045231169032 0.0006084479820127075 0.0006632102301381453 0.0006849124241392843 0.0006918237241166262 0.0008379353372809492 0.001059090796499518 0.0006921471905911662 0.0007581214453065923 0.0007633248332357662 0.0007697287247223225 0.0007812198637836993 0.0007684016730854939 0.0007694503988924005 0.0007765495233382558 0.0007119566482142468 0.000894970581001996 0.0013095070981555938 0.0015487650804880573 0.0010206841161672562 0.0010292750857031506 0.0007324267031315017 0.0007560591652370499 0.0006875915952388108 0.0006443554894647504 0.0005422366391891375 0.0004459751520993893 0.0008325580154483408 0.0004841405230440903 0.0004624111419153813 0.0007498450339420642 0.0007458767855735212 0.0007390345227546917 0.0007549654045347821 0.0007425204903095861 0.0007733877492486433 0.000766702367904325 0.0007684341038934808 0.0007596967840447812 0.0008284489143300149 0.0006929371999303644 0.0006484756932583369 0.000881710379129474 0.0011070880442832368 0.0007537263256525762 0.0007509316138395949 0.001101232830464301 0.0005713815180796141 0.0019219740749469782 0.0016704309172789406 0.00061777604697447 0.00040098862556764994 0.00042029247967991873 0.0005467864361510239 0.0009680946084097479 0.0009929982596425973 0.0010580759044434029 0.0010185580376327289 0.0011143214633774026 0.0004468016401942071 0.0009153837998141366 0.001295738795112927 0.0018048451925487075 0.0015916291515034088 0.0016614404240589966 0.0010087146536221078 0.00045621799559283005 0.001765508616249732 0.0016081114868118486 0.0009225338628531566 0.0019456404856062865 0.0008669889202763362 0.0007716536594749823 0.0005173643786725041 0.0011429043527338698 0.0014251627513909941 0.0017063902816673742 0.000979446989449582 0.00046800042561668663 0.0012318101117063736 0.0015379404225152374 0.00048243811137561567 0.0018473230402082034 0.0013483748590076227 0.0013120891184631336 0.0012354534711093382 0.0018295113860478456 0.0007125018816321708 0.0007384623523272203 0.0006793107916693955 0.0007232034405568352 0.0007288311693794004 0.0008097108108091807 0.0006342683015589459 0.0006103151110419112 0.0005750196486028048 0.0005804786475286387 0.00038956917615534263 0.0010532044760098059 0.0016062672307135674 0.0008044583598124575 0.000521298875690357 0.001562884091709823 0.0019285594411124671 0.0005360193204314507 0.0005585689595062352 0.0007138701911602538 0.0006401551715808379 0.0020816149147867774 0.00183454137274342 0.0005745788343481577 0.0020071672564085335 0.0005672938663030142 0.0005270104816474821 0.0018525905294472416 0.0005781124524637548 0.0006347938365754717 0.0005491414764687951 0.0018211400296521123 0.0005388998402347028 0.001828280505805509 0.0018218812571676422 0.0006455587974917698 0.0005185123056110248 0.00047527264897978994 0.000554615844311048 0.0005310710176031948 0.0005026278457672088 0.0005388093162641024 0.0004979291614114766 0.0005454769880057214 0.0005188425496964382 0.0004811615476703533 0.0005123651614490471 0.00048566207714781937 0.000501272258476418 0.00045500536671322004 0.0005282349221796183 0.0005523485671080227 0.000529929965162503 0.0005402048912321869 0.0005054586492995378 0.000534369855108281 0.0005785635232099203 0.0004148501628821354 0.0004123840194972328 0.0004037558213030472 0.00041349957946272727 0.00041010789865710023 0.0004274067416198953 0.0004048959779191522 0.00045065081421038176 0.0004010565610350565 0.000575329493857114 0.00042933411579241983 0.0004382495748286664 0.0013610328626796038 0.0017629701120762283 0.001712529046905664 0.0017991545556815842 0.0008665071861185302 0.0008259722638717978 0.0005351962353441591 0.0016544002290308103 0.0015942297429389829 0.0006812276664250127 0.0007196292221900504 0.0015766059387772179 0.0006955062509562405 0.002066993569518054 0.002055727424467181 0.0005999524171144858 0.0006069236535048214 0.0006573030330521948 0.0006539846596240972 0.0005066367014801272 0.0004893344912406406 0.00047250688083820834 0.00046633494477776573 0.0004247532931668791 0.00044999935923000276 0.00044453955556831285 0.00046544746817929895 0.0004663367495757861 0.0004481936918975243 0.00041955338048978245 0.00042699408372330697 0.00043680308291393417 0.00045776492906541546 0.00037955076028992383 0.0004271570864080497 0.0003003229298065411 0.0003935190033651057 0.0004676454451888662 0.0004099679068788831 0.00038352384056294296 0.00040764068028142366 0.00042041886518206855 0.0004692811110947901 0.00048429169522049465 0.00044078137691139755 0.0004132685537490376 0.0004679705396253524 0.0004541544435041159 0.0004481921731819966 0.0004242042513001585 0.00042230354184880965 0.0004556822173650765 0.0004953026207416795 0.0004399152127336011 0.00046714758284558067 0.0004795390965516949 0.00042901798302608454 0.0004669494935580384 0.0005080550200855722 0.00043134073078005946 0.0004418588190441948 0.00045553186045891155 0.00045385807423186953 0.00043734490297913444 0.000454671416316185 0.00040740087738226036 0.0005046419071975926 0.0006038552537854677 0.0004495078806598342 0.00039670588312198696 0