<?xml version="1.0"?>
<VTKFile type="UnstructuredGrid"  version="0.1"  >
<UnstructuredGrid>
<Piece  NumberOfPoints="1289" NumberOfCells="2413">
<Points>
<DataArray  type="Float64"  NumberOfComponents="3"  format="ascii">0 0 0  0 0.41 0  2.2 0.41 0  2.2 0 0  0.1 0.1 0  0.1 0.3 0  0.8 0.3 0  0.8 0.1 0  0.25 0.2 0  0.248976 0.210065 0  0.245948 0.219718 0  0.241038 0.228563 0  0.234448 0.23624 0  0.226448 0.242432 0  0.217365 0.246888 0  0.207571 0.249423 0  0.197468 0.249936 0  0.187467 0.248404 0  0.17798 0.24489 0  0.169395 0.239539 0  0.162062 0.232569 0  0.156283 0.224265 0  0.152293 0.214968 0  0.150257 0.205058 0  0.150257 0.194942 0  0.152293 0.185032 0  0.156283 0.175735 0  0.162062 0.167431 0  0.169395 0.160461 0  0.17798 0.15511 0  0.187467 0.151596 0  0.197468 0.150064 0  0.207571 0.150577 0  0.217365 0.153112 0  0.226448 0.157568 0  0.234448 0.16376 0  0.241038 0.171437 0  0.245948 0.180282 0  0.248976 0.189935 0  1.1 0 0  1.1 0.41 0  0.1 0.2 0  0.45 0.1 0  0.45 0.3 0  0.55 0 0  0.275 0.1 0  0.275 0.3 0  0.275 0 0  0.55 0.41 0  0 0.205 0  0.825 0 0  0.825 0.41 0  0.275 0.41 0  0.1 0.15 0  0.1875 0.1 0  0.1 0.25 0  0.1875 0.3 0  0.132322 0.2 0  0.241426 0.253518 0  0.241426 0.146482 0  0.264574 0.17974 0  0.264574 0.22026 0  0.138434 0.187348 0  0.153372 0.150948 0  0.148413 0.164094 0  0.176495 0.136535 0  0.22768 0.143571 0  0.138434 0.212652 0  0.148413 0.235906 0  0.176495 0.263465 0  0.22768 0.256429 0  0.23125 0.3 0  0.24769 0.24094 0  0.23125 0.1 0  0.24769 0.15906 0  0.26253 0.193641 0  0.190482 0.137872 0  0.166753 0.146661 0  0.157737 0.244461 0  0.190482 0.262128 0  0.203107 0.261264 0  0.253635 0.22977 0  0.203107 0.138736 0  0.253635 0.17023 0  0.261028 0.206206 0  0.167707 0.251809 0  0.143629 0.224191 0  0.215302 0.2591 0  0.270465 0.245894 0  0.215302 0.1409 0  0.270465 0.154106 0  0.284052 0.202587 0  0.14375 0.3 0  0.209375 0.3 0  0.225966 0.278501 0  0.209375 0.1 0  0.225966 0.121499 0  0.211613 0.273759 0  0.211613 0.126241 0  0.143629 0.175809 0  0.1 0.175 0  0.133484 0.164832 0  0.144491 0.249539 0  0.1 0.225 0  0.133484 0.235168 0  0.3625 0.3 0  0.25691 0.253381 0  0.25691 0.146619 0  0.277205 0.188698 0  0.184724 0.275712 0  0.237372 0.268285 0  0.184724 0.124288 0  0.237372 0.131715 0  0.197578 0.273149 0  0.193656 0.286994 0  0.197578 0.126851 0  0.193656 0.113006 0  0.122953 0.187671 0  0.118362 0.153758 0  0.155372 0.258107 0  0.122953 0.212329 0  0.118362 0.246242 0  0.276394 0.27264 0  0.276394 0.12736 0  0.280965 0.170013 0  0.253125 0.3 0  0.14375 0.1 0  0.253125 0.1 0  0.269489 0.26014 0  0.269489 0.13986 0  0.303639 0.184297 0  0.165625 0.3 0  0.134742 0.273113 0  0.257831 0.274737 0  0.255279 0.128499 0  0.3625 0.1 0  0.165625 0.1 0  0.162031 0.132368 0  0.134955 0.126405 0  0.149334 0.125568 0  0.142936 0.139597 0  0.12695 0.140259 0  0.242514 0.285501 0  0.242514 0.114499 0  0.1 0.125 0  0.117483 0.12555 0  0.11154 0.139776 0  0.121875 0.1 0  0.109143 0.1125 0  0.126805 0.114 0  0.220313 0.29129 0  0.351562 0.287369 0  0.207222 0.2866 0  0.220312 0.10871 0  0.1375 0 0  0.20625 0 0  0.207222 0.1134 0  0.11722 0.17118 0  0.1 0.1625 0  0.0778409 0.16875 0  0.0862762 0.15625 0  0 0.15375 0  0 0.1025 0  0.11722 0.22882 0  0.1 0.2375 0  0 0.3075 0  0.0862762 0.23125 0  0.0598995 0.222547 0  0.0860223 0.2125 0  0.289584 0.181469 0  0.300267 0.16446 0  0.163832 0.269071 0  0.149597 0.273325 0  0.1 0.275 0  0.268498 0.285953 0  0.31875 0.3 0  0.294154 0.254672 0  0.296875 0.3 0  0.293558 0.271845 0  0.285095 0.286799 0  0.324298 0.264316 0  0.307866 0.263745 0  0.317093 0.234901 0  0.315485 0.281219 0  0.316547 0.250625 0  0.344693 0.243731 0  0.331592 0.251147 0  0.35129 0.270663 0  0.338689 0.263683 0  0.340625 0.3 0  0.249849 0.264383 0  0.265097 0.11422 0  0.284688 0.156136 0  0.242188 0.324017 0  0.0856613 0.2625 0  0.132812 0.0612217 0  0.264062 0.0612217 0  0.198437 0.07598340000000001 0  0.0860223 0.1375 0  0.0794526 0.191089 0  0.285228 0.140397 0  0.298655 0.148737 0  0.31875 0.1 0  0.327335 0.15374 0  0.296875 0.1 0  0.312289 0.155283 0  0.313348 0.135607 0  0.321802 0.173916 0  0.298433 0.134116 0  0.112124 0.2625 0  0.127526 0.259083 0  0.121875 0.3 0  0.0682687 0.241503 0  0.1 0.2875 0  0.117762 0.28125 0  0.107813 0.3 0  0.103906 0.313849 0  0.0778409 0.28125 0  0.1375 0.41 0  0.0862762 0.29375 0  0.08886860000000001 0.24375 0  0.307812 0.338778 0  0.307812 0.292227 0  0.33216 0.279164 0  0.387888 0.266414 0  0.264063 0.31948 0  0.110937 0.07598340000000001 0  0.242188 0.07598340000000001 0  0.319914 0.11839 0  0.340625 0.1 0  0.334448 0.133793 0  0.329687 0.108539 0  0.346259 0.118491 0  0.360334 0.173636 0  0.327539 0.205033 0  0.132812 0.288712 0  0.362436 0.278836 0  0.368105 0.259418 0  0.4125 0.41 0  0.329687 0.324017 0  0.329687 0.292306 0  0.285938 0.318952 0  0.417187 0.338778 0  0.324481 0.14148 0  0.351562 0.106771 0  0.40625 0.1 0  0.341028 0.168342 0  0.319221 0.190479 0  0.335292 0.184501 0  0.305563 0.20794 0  0.220313 0.31948 0  0.132812 0.332772 0  0.0865876 0.311259 0  0.0598995 0.302453 0  0.0906541 0.343255 0  0.353543 0.255837 0  0.36574 0.237633 0  0.405007 0.254279 0  0.275795 0.352123 0  0.4125 0 0  0.35493 0.137394 0  0.366563 0.120618 0  0.35917 0.205246 0  0.198438 0.318952 0  0.0626109 0.263892 0  0.40625 0.3 0  0.354809 0.155936 0  0.386512 0.146872 0  0.373101 0.159939 0  0.384375 0.1 0  0.343394 0.19929 0  0.350682 0.185683 0  0.368101 0.189748 0  0.344016 0.221511 0  0.391108 0.213329 0  0.376279 0.204783 0  0.398843 0.182768 0  0.375804 0.222746 0  0.390665 0.196958 0  0.394004 0.23518 0  0.359883 0.222828 0  0.419908 0.204359 0  0.404243 0.204783 0  0.412615 0.224526 0  0.20625 0.41 0  0.165625 0.325257 0  0.0347982 0.244954 0  0.379558 0.247154 0  0.34165 0.147603 0  0.372264 0.136992 0  0.388988 0.121989 0  0.373437 0.108554 0  0.351562 0.31948 0  0.391367 0.16527 0  0.399572 0.223324 0  0.452011 0.227371 0  0.40877 0.239392 0  0.431491 0.237337 0  0.421224 0.250459 0  0.449619 0.262098 0  0.418865 0.276779 0  0.437063 0.252274 0  0.415673 0.263227 0  0.430988 0.266772 0  0.402767 0.273419 0  0.452967 0.244883 0  0.428125 0.3 0  0.408502 0.286186 0  0.384375 0.3 0  0.392267 0.285807 0  0.465927 0.219339 0  0.43489 0.283846 0  0.376424 0.286289 0  0.625 0.3 0  0.473533 0.205186 0  0.461713 0.255517 0  0.5375 0.3 0  0.465725 0.235405 0  0.44631 0.201425 0  0.471875 0.3 0  0.494307 0.227729 0  0.459448 0.206736 0  0.462294 0.180792 0  0.478933 0.227536 0  0.486793 0.21381 0  0.486322 0.251373 0  0.50065 0.215318 0  0.54005 0.175389 0  0.474633 0.189893 0  0.512916 0.208697 0  0.49531 0.199967 0  0.475889 0.175275 0  0.625 0.1 0  0.459311 0.153933 0  0.513645 0.242704 0  0.392892 0.248539 0  0.374815 0.271913 0  0.365974 0.14871 0  0.395312 0.109184 0  0.417061 0.123981 0  0.483196 0.277003 0  0.381967 0.179632 0  0.429898 0.219374 0  0.433473 0.206165 0  0.43149 0.181038 0  0.444208 0.215487 0  0.472985 0.247309 0  0.49375 0.3 0  0.475579 0.262714 0  0.49916 0.274293 0  0.501175 0.184809 0  0.514164 0.225681 0  0.543648 0.214977 0  0.5341630000000001 0.23481 0  0.527396 0.216171 0  0.5375 0.1 0  0.534548 0.202315 0  0.561545 0.192513 0  0.5494289999999999 0.201221 0  0.570923 0.218346 0  0.412582 0.149833 0  0.489327 0.264745 0  0.502439 0.254775 0  0.462391 0.271166 0  0.496775 0.241732 0  0.5294410000000001 0.268606 0  0.482812 0.291099 0  0.46879 0.285038 0  0.452663 0.284065 0  0.51789 0.257882 0  0.53408 0.252026 0  0.560142 0.243543 0  0.545708 0.243474 0  0.547532 0.229019 0  0.55282 0.265323 0  0.398971 0.153424 0  0.400349 0.135684 0  0.410135 0.168145 0  0.428823 0.161323 0  0.415266 0.183779 0  0.329687 0.0810483 0  0.395312 0.0612217 0  0.373437 0.318952 0  0.439062 0.324017 0  0.561816 0.229354 0  0.585029 0.239287 0  0.431827 0.139854 0  0.446796 0.168929 0  0.351562 0.07598340000000001 0  0.395313 0.318944 0  0.54337 0.150762 0  0.460937 0.31948 0  0.418412 0.137529 0  0.428125 0.1 0  0.442783 0.152332 0  0.450742 0.134294 0  0.373437 0.0805201 0  0.384383 0.342558 0  0.482812 0.318952 0  0.429239 0.127457 0  0.444274 0.117405 0  0.426548 0.113815 0  0.49375 0.1 0  0.488954 0.113984 0  0.457973 0.121842 0  0.471621 0.137346 0  0.515625 0.325257 0  0.48125 0.41 0  0.417187 0.07598340000000001 0  0.496363 0.126778 0  0.479043 0.155715 0  0.439062 0.0805201 0  0.481795 0.126919 0  0.471875 0.1 0  0.489227 0.142159 0  0.515625 0.1 0  0.520062 0.147117 0  0.501244 0.161791 0  0.505431 0.112984 0  0.505344 0.14029 0  0.526563 0.119081 0  0.5181750000000001 0.131908 0  0.539868 0.136937 0  0.460937 0.108383 0  0.474242 0.114415 0  0.460937 0.0810483 0  0.487841 0.167168 0  0.526563 0.0612217 0  0.526563 0.106406 0  0.537619 0.112743 0  0.58125 0.1 0  0.559375 0.1 0  0.482812 0.08105569999999999 0  0.471883 0.0587655 0  0.570312 0.129396 0  0.548437 0.07598340000000001 0  0.504687 0.08105569999999999 0  0.49375 0.0470127 0  0.570312 0.112663 0  0.592798 0.12103 0  0.553986 0.12103 0  0.570312 0.0805201 0  0.48125 0 0  0.114787 0.2 0  0.160769 0.284765 0  0.175816 0.288361 0  0.162602 0.116048 0  0.154687 0.07598340000000001 0  0.176562 0.0805201 0  0.0598995 0.147547 0  0.307812 0.109924 0  0.291279 0.117157 0  0.278491 0.112989 0  0.285937 0.07598340000000001 0  0.307812 0.0805201 0  0.296928 0.196743 0  0.318141 0.218507 0  0.330208 0.227509 0  0.301397 0.225668 0  0.302706 0.241401 0  0.292574 0.21424 0  0.282762 0.230935 0  0.284351 0.244775 0  0.269553 0.23261 0  0.278572 0.217242 0  0.226924 0.342606 0  0.446928 0.185396 0  0.515625 0.3 0  0.504687 0.288879 0  0.515256 0.276534 0  0.529479 0.285328 0  0.58125 0.3 0  0.541969 0.272936 0  0.559375 0.3 0  0.556796 0.282529 0  0.543473 0.287206 0  0.581429 0.267774 0  0.566728 0.271171 0  0.570869 0.255585 0  0.577404 0.283865 0  0.603125 0.3 0  0.597531 0.28035 0  0.570312 0.338778 0  0.592188 0.292492 0  0.603513 0.256094 0  0.614063 0.286265 0  0.610329 0.27064 0  0.632708 0.251285 0  0.657223 0.261594 0  0.618789 0.257807 0  0.614188 0.22987 0  0.630935 0.265614 
[...]
<PointData  Scalars="p"> 
	<DataArray  type="Float64"  Name="p"  format="ascii">
0.000455019862909863 0.00043453441199760935 -6.082251252709973e-08 -3.721546534548014e-08 0.0005079587398710599 0.0005040469003483213 6.99402009784635e-05 6.955591406693131e-05 -0.00028308007969866396 -0.00029194193368497194 -0.00031122248692207243 -0.0003319554243818268 -0.0003660406834983656 -0.00041956979661299313 -0.000512136541579452 -0.0006508908089758418 -0.0007636167231716992 -0.0009327397835307677 -0.0007036281375817849 -0.0003188818833344513 0.00022307355065963796 0.000890876150470228 0.0014244673918398258 0.0017577496972420472 0.0017507204109941058 0.0014018507790542068 0.0008695696852367586 0.00020253127767639234 -0.0004371365227454873 -0.0007170352477689499 -0.0008976511435029892 -0.0007713562818097409 -0.0006478815562432079 -0.0005138819053093425 -0.0004189582283105659 -0.00036541609673293793 -0.0003304673800437471 -0.0003093395951962569 -0.0002920895122898392 8.601699011133467e-05 8.287886902464377e-05 0.0011428893002477436 -0.00014414344308021036 -0.0001371666065783438 -4.713873033474426e-05 -0.00017221307967926538 -0.00017576915191681858 2.9170538539534046e-05 -3.328518671533036e-05 0.0007441720382603361 5.87350359471163e-05 5.716172208499756e-05 4.880443205148386e-05 0.0008105793345863728 2.3038311068531595e-05 0.0008126346638879365 3.753168292913208e-05 0.0015644423921715306 -0.0003498258880996324 -0.0003478259402553618 -0.00030678825890281634 -0.0003066964002216574 0.001512493536977636 0.0003124121113623408 0.0007211437629562196 -0.0003436819984472979 -0.00042490278517248677 0.0015285471395056589 0.0007351733276033003 -0.00032374098320537805 -0.00042327359185306276 -0.0001260590009905463 -0.0003371180994599167 -0.00013047143788898238 -0.00033521171861436644 -0.00029501058607391293 -0.0005997429726004096 -0.0002067067229418406 0.00020825246477500475 -0.0006086763027290635 -0.0006091315319572804 -0.0003198797252757323 -0.0006102631271398312 -0.0003189876118830582 -0.0002949555718352631 -0.00023238961938545246 0.001179227540950017 -0.000509291036468126 -0.0003152230179241957 -0.0005082636040246979 -0.0003136135449705572 -0.00030107053509258235 0.00034225155636234136 -9.079075953406031e-05 -0.0003103795283185768 -6.166235090729616e-05 -0.0002994074251132404 -0.0003970640478892103 -0.0003969233518734233 0.0011600281128107462 0.00102033536073403 0.0010129295365441547 0.0005464719100333637 0.0010419808400713548 0.0010394635128698091 -0.00020379551267594843 -0.0003206854548482607 -0.00032074054729580635 -0.0003011680199856501 -0.000218883670187805 -0.0003592095231074233 -0.00022788820434856345 -0.00036115850681724923 -0.0003529840289466963 -0.00012493588594658057 -0.0003392330750146025 -0.0001226244596509168 0.0013473879072447227 0.000869543526160225 0.0002607844817066565 0.0013475306248699505 0.0008782868885026277 -0.00028998050753269053 -0.0002929698855731684 -0.0003117052567351892 -0.00016793909153060038 0.0003378459022560392 -0.00015041738672591206 -0.0003108440367735682 -0.0003094274804138703 -0.0003078717434096838 0.00019066201549350353 0.0005131080868708629 -0.00030559496394731614 -0.0002996194273910823 -0.00020662816618803438 0.00020979995142859939 0.00011334549452800449 0.0004885182435643567 0.0003389924954618405 0.0004241041789248428 0.0006427746616554014 -0.0002486291520114753 -0.00024017904903320513 0.0006219526316083737 0.0005846762836745088 0.0007076537568500917 0.0004494045695190649 0.0005349555752033309 0.000482887749867156 -0.0001746399699700202 -0.00024693115544250645 -0.0002173564133805549 -0.00017632981720545692 0.0003751351265813656 0.0001999298223671335 -0.0001968124501928068 0.0010818899838543016 0.0009128116411808987 0.0008763839287986408 0.0008215951631424529 0.0006783287983513761 0.000540095793557314 0.0010866907970859994 0.0009359006787378991 0.0005138382478414058 0.0008976214904253035 0.0008342867233508801 0.0009924367499006485 -0.00030714087977537664 -0.0003124386390219546 6.116459482573385e-05 0.0003172294173307458 0.0006247323813367608 -0.0002504513089650256 -0.00019867842169167822 -0.0003154977200049995 -0.00019959440076359227 -0.00030176258711179713 -0.00025020258605450916 -0.0003078753908928057 -0.0003068294946784987 -0.0003155509959715548 -0.0002733831277968079 -0.00031433888417093124 -0.00030937617156542987 -0.0003121603401317902 -0.00028864040578235526 -0.0003012580170550994 -0.00021890335903281832 -0.0003261503979971009 -0.0002472965140277492 -0.000312147226373695 -1.0369172057341971e-05 0.000717285422850971 0.00036783741089349125 -7.3918992765741315e-06 0.000130177752187124 0.0006952316011546347 0.0009543520538209557 -0.00030580078674947563 -0.00031043005746886245 -0.00019955114769975053 -0.0003094097293160269 -0.0001977782778984289 -0.00031161158981337506 -0.0003040764188038355 -0.00030962019388191674 -0.0003005948049249078 0.000698351407137404 0.0006510871645192032 0.00045015031281239113 0.0007857657727494073 0.0005674045804462074 0.0005452228872042233 0.0004826462101634309 0.0004525306285350327 0.0005977571460424605 0.0003544760393397834 0.0005461587323141683 0.000841869224598403 -7.431550251422677e-05 -0.00023731519123279253 -0.00028027760699528807 -0.00026489524349215533 -7.882442932253823e-05 0.0004365458340078566 -4.642591911822834e-06 -0.00027074846500458054 -0.0002124682779662321 -0.0002959760575607189 -0.00023729924609765384 -0.0002685153557441794 -0.00029712613670548335 -0.0003054129333430621 0.0004263697261114829 -0.0002689390124635501 -0.0002887832092485156 -7.726839650722371e-05 -0.00012453814540512383 -0.00024448622405142024 -0.00010942118763434604 -0.00010829610090068392 -0.00030357359993292296 -0.00022795162199706133 -0.00018351050864646214 -0.00030619480015982656 -0.00030625104049165745 -0.0003045776443522054 -0.00030690075488064837 -2.960194079840037e-06 0.00036492816679957094 0.00048820637488056906 0.0005274396712751935 0.0004206174405459252 -0.0003014683381243228 -0.0002969072941661819 -0.0002527831177540357 1.5465938521674014e-05 -0.00010277886795519071 -0.00029225352424151583 -0.00025991688725738297 -0.0002944494026137594 0.00010311189855756777 0.0006741102917972631 -0.00017925630982793583 -0.000300749056725118 -0.0002782837311161567 -0.0002905532356561043 -0.00019887639012117233 -0.000301095693419766 -0.0002992565012677223 -0.000289714642417313 -0.00030527863382444077 -0.0002701738008057367 -0.00028308742876496793 -0.00026464868312977197 -0.0002867910110362918 -0.00027028800642643337 -0.0002701807204220441 -0.00029802572644735214 -0.00023355224844903884 -0.0002546092402574293 -0.00024530500581574824 0.0002119795914259844 0.0002360171866788007 0.0007009417992430918 -0.0002849819176927067 -0.0003035625668794406 -0.00028202593988963393 -0.0002487211670626796 -0.00022941820996997 -0.00015035915168836063 -0.0002759049433254062 -0.00026217828978011674 -0.0001803595105627724 -0.00025135819713582066 -0.00021694827780748926 -0.0002306261200923075 -0.00017863150358881055 -0.00021065987069201884 -0.00020419408798002988 -0.00023158438833476775 -0.00020556822502575302 -0.00023801255783612463 -0.00017776269976242247 -0.0001602942323374968 -0.00020913975290969277 -0.0002014591630748838 -0.00022595768297460771 -0.00015364092715858293 -0.00017999814887166769 -0.00024089065784700062 3.066468919766776e-05 -0.00014019376777453247 -0.00015851422977146017 -3.5274935621756145e-05 -0.000154377078201887 -0.00019211772458071097 -0.00011082539516063755 -9.799088178139924e-05 -0.0001665072122237547 -0.000170167859627383 -0.00012856019721038155 -0.00011277763361673607 -0.00011416419358617022 -8.51089945347796e-05 -1.689984336186754e-05 -0.0001422990658761111 -6.138323624296629e-05 -9.769882908048566e-05 -0.00014584571637458335 2.9633527709786322e-05 -0.00018099414960296724 -6.318387082131715e-05 -0.0002696116901761711 -0.00026745856334059264 -0.0002924704464963302 -0.00021516219583202296 -0.000223165796911848 -0.00011095360773571803 -0.0002815182693196487 -0.00021880611006985183 -0.00021264416412095056 -0.00022306603870765954 -0.00019427610133415687 -0.00013989964641718264 -8.229139915341025e-05 -0.00013114149335085988 -8.83357382810972e-05 -9.065013474205827e-05 -5.970900087856239e-05 -6.3200448566355506e-06 -2.5617034322398024e-05 -3.44793407226063e-05 -4.134098037303789e-05 -2.1644953410338625e-05 2.2421231461622436e-05 3.744295881127499e-06 3.320967970435504e-05 -0.0002517872050876816 -0.00010635554310077518 -8.429267211932883e-05 -0.00015050797248753275 -9.43505521010994e-05 -4.173332264078408e-05 -0.00010352800815519985 -0.00012889688075467645 -0.00015299104045077947 -5.797502416316689e-05 -3.0016727553443942e-05 1.0871830729507258e-05 -1.0378981061228273e-05 -3.0040599366490645e-06 -7.739153432188626e-06 -0.0002679704982298366 -0.00025799235727886553 -0.0002563536942310328 -0.00023227415615827344 -0.0002448691965098284 -0.00014983594498319704 -0.00011915669982722256 -0.00015622917893937555 -0.00011441877394023188 1.8154250201117338e-05 4.3275727318784316e-05 -0.0002211635523277521 -0.00020204440845733267 -0.00014321031895021772 -0.00014513941779838096 -1.6976088571485126e-05 -0.00010386371229002727 -0.00023595802421015353 -0.00016962681084251304 -0.00020932405216697456 -0.00018714414854985916 -0.00015820966208195673 -0.00010622389699546338 -8.929877490399134e-05 -0.00021129072285797732 -0.00017456254187314275 -0.00019958385203045054 -9.316705892690608e-05 -0.00010948837718058664 -0.00016392778135140726 -0.00015181690515063355 -5.107967782786605e-05 -7.379933893906539e-05 -0.0001286800661268958 -0.0001007067458007247 -0.00014249282936955253 -0.00013236020032393947 -0.00012814470969309535 -0.00011808779255449765 -0.00012034862403435924 -6.408701657533056e-05 -6.0621313974379076e-05 -9.706259723176163e-05 -8.085932965639062e-05 -8.883714033146077e-05 -5.2795534415976145e-05 -6.564708171640174e-05 -2.645191999011748e-05 -0.00014460331605855385 -0.00012811435392875525 -0.00011810040950809368 -0.00012317836568390356 -5.3416581875452686e-05 -5.352998852246778e-05 -3.708600731952825e-05 1.495579902598243e-06 -1.7898672045550154e-05 -8.8674877008318e-05 -9.484061795192802e-05 1.2028595129824243e-05 -3.342121275101162e-05 -7.657930812860057e-05 -7.207884367945675e-05 9.822015255897418e-07 2.7477385352279503e-05 -1.4141847681343629e-05 -2.0436250096899376e-05 -8.892432917841294e-05 0.0013124049083322576 0.00020063017299884974 1.9293014911925464e-05 0.00015747891027144086 0.0003026206123897129 0.00019830895808266094 0.0007210830025366496 -0.00024371591361945457 -0.0002598297664521393 -0.00023784537276651192 -9.007158434620621e-05 -0.0001292312189620224 -0.000304263097799232 -0.00030999306043250454 -0.0003114851974486436 -0.00031296211708554527 -0.00031653460333048555 -0.0003067161325373942 -0.00031381583677022755 -0.0003159093839026052 -0.00031510576201330823 -0.00030576906294999955 9.400307871986986e-05 -0.00019587874970825178 -5.925968375605378e-05 -7.601925516307119e-05 -6.155893635986812e-05 -4.341543902745434e-05 2.389299782732594e-06 -2.4509776276833635e-05 -1.356418774353889e-05 -1.0507154294370377e-05 -2.5991680454611103e-05 2.318002931230489e-05 5.643510183089317e-06 1.8278411871460047e-05 8.730682057171783e-06 1.796577233337208e-05 2.909278214460448e-05 -1.9776789680243195e-05 1.5820128993096648e-05 5.0922336966741624e-05 3.491167113915298e-05 4.546032852303406e-05 7.465258047847388e-05 7.857225721966861e-05 6.112343625334759e-05 7.35618300706914e-05 6.276665945731185e-05 7.201579170644016e-05 4.770257476399024e-05 9.263931876546008e-05 5.8609521486468266e-05 4.791035372099697e-05 6.285041223732e-05 3.9155235133083665e-05 6.401649567860505e-05 -3.262703698252777e-05 -6.971332009994791e-07 3.613485604811656e-05 3.754697914205162e-05 5.142720952826515e-05 9.136010928299614e-05 1.5737069114415663e-05 9.397154888906522e-06 8.199096158446801e-05 5.243446507257884e-05 0.00010044192206710348 6.221160667329776e-05 7.429939717235445e-05 9.551326095947144e-05 9.082861599802922e-05 0.00010839689710503349 8.44570773261952e-05 9.570085736292558e-05 0.00010169216042895854 0.00010633658117703176 0.00010351241298262287 0.00010309640007788096 9.892445870422181e-05 0.00011014785429059568 0.00010237719522650613 8.759463976886065e-05 9.821941386108421e-05 7.307200824532605e-05 6.452914870011158e-05 6.218018593296597e-05 0.00010740720161780134 8.45607840998625e-05 8.34053958498668e-05 7.412604924417637e-05 7.519099007177111e-05 8.961644774686617e-05 9.754247626216791e-05 9.431084443086468e-05 9.557445408676041e-05 8.519387170153265e-05 8.56405063696671e-05 0.00011003162554427079 0.00010043556865559769 6.967723629186898e-05 7.595917548949806e-05 7.984313847843036e-05 7.835098561950525e-05 8.243032542656662e-05 7.659589013202468e-05 7.45735201312226e-05 6.386792007175891e-05 7.90503135720556e-05 6.29406089891208e-05 2.2512377938088913e-05 2.3129283253446694e-05 4.222254139058792e-05 0.00011164370115188132 9.38649396513841e-05 0.00010498288569350192 0.00010391871163968189 5.698584657047569e-05 2.8334405480136392e-05 9.93226311252984e-05 3.9267513590516824e-05 0.00010750452441986595 0.00010875181577597691 0.00010216867151091182 0.00010535825405767174 5.4714597922998736e-05 1.190851201917648e-05 4.546844030287359e-05 0.00010836727134195336 0.00010669358006379415 0.00011018174783922266 9.30279577299289e-05 0.00010441396054929813 0.00010166598235477775 0.00010255071616050966 9.911946836513388e-05 0.00010022430313656755 0.00010548515654917409 0.00011153220325795641 0.0001072630849120819 0.00011232220846006327 0.00011229768983323123 5.582673749010961e-05 9.324547830642137e-05 0.00010806603729703599 0.00011158382305586416 0.00011061089763697251 0.0001119942481350822 0.00011009053989809761 0.00011221870843280668 0.0001055195760431321 0.00010919918315594906 0.00010144523647381023 0.0001107647662028775 0.00010941331436282451 0.00010782723944297034 9.817737008479437e-05 0.00010511140691960046 9.854679350085461e-05 4.4085410551024514e-05 9.014241569695068e-05 7.209166905837984e-05 6.427438380766119e-05 9.402723363818158e-05 9.0723906176764e-05 9.966310870962462e-05 0.00010628779116427481 8.827583975537857e-05 8.756510859784628e-05 9.781859725520831e-05 9.602760897840891e-05 9.601497861564594e-05 7.641442833861876e-05 8.827647143510048e-05 8.055252922238912e-05 8.073413383877253e-05 4.9714891314828664e-05 6.11027146030987e-05 6.684665667394659e-05 5.126074442088082e-05 6.0122845161133845e-05 7.568591530232228e-05 7.310841994381582e-05 3.759763068403602e-05 4.9112949890788903e-05 6.345177560588289e-05 4.532782772530377e-05 1.665755341812047e-05 3.792810063484557e-05 2.4620456734709296e-05 7.374840388136852e-05 7.855023522659613e-05 8.239046056294022e-05 5.5274950596497845e-05 7.36548487457677e-05 4.080560892974203e-05 1.5456941786290615e-05 -2.106989527359182e-06 3.04816281047016e-05 3.159201714964971e-05 -9.199038500587885e-07 5.989478376682909e-06 1.0831658049340393e-05 6.00801388211545e-05 5.9203993524339475e-05 6.57637089213316e-05 1.9637790224195536e-05 8.433527242506449e-05 4.5905790556478653e-05 6.6255571771915935e-06 -1.242541673433998e-05 3.191638882244416e-05 1.7084744008706082e-05 6.324441511695464e-05 -9.360703103515376e-06 3.1370829129090356e-05 7.655083408013051e-05 7.145127768005062e-05 3.165787728472841e-05 4.33787926444855e-05 6.824544978529859e-05 7.369046105258075e-05 6.811664146693058e-05 8.896792819128436e-05 4.535918263924692e-05 8.463221051228128e-05 5.4586821378378747e-05 8.971159776063925e-05 7.678640904319853e-05 8.828324232963354e-05 6.0090841169271074e-05 7.357803475319378e-05 8.186071556563621e-05 0.00010050064889004481 0.00010123289674109972 9.480499411693342e-05 9.68548750659639e-05 9.815662988428648e-05 0.00010238088490438555 0.00010405785234750277 0.00010595465796626416 0.00010603435695677635 0.00010409431166899656 8.953202165955883e-05 9.853021031016458e-05 -4.77618716817043e-05 -5.928956215555737e-05 -5.969396601569734e-05 -5.211901101365493e-05 -6.602466073611803e-05 -6.95115836570563e-05 -3.5126034388672115e-05 -4.04037380112518e-05 -1.9007760454013273e-05 2.9509058860565004e-06 -8.563115952503673e-05 -0.00010345579320204177 5.033673454416934e-05 0.0002680449535959698 -8.653443868389433e-05 3.094742518825231e-05 5.8414752685545856e-05 6.0027580231733056e-05 0.00010670511467130299 0.00010977669862328596 -1.1485577512934997e-05 3.8172278072792406e-05 -6.96894193730803e-05 3.112164359442911e-05 8.815142697847623e-05 9.116712728066789e-05 0.00010038828243615724 8.494747964803163e-05 0.000103081599937501 0.00010709683795301773 6.562239748320776e-05 5.034786546877276e-05 3.286534924794415e-05 1.591272967951302e-05 -2.894152503734533e-05 5.155395870967537e-05 6.291339930655772e-05 -7.659506606558401e-05 0.00012951397071117967 7.302677475085677e-05 4.52328831413601e-05 0.00011476771718995965 -7.1856723444050335e-06 0.0005716368126061269 0.00046047156084246107 -3.9235287473959316e-05 7.008946840425837e-05 5.439431374051865e-05 9.475219006945523e-05 -0.00010674213879724207 -0.00010357084684144368 -6.430874986301717e-05 -8.240245534279571e-05 -2.398800784990673e-05 4.6032291956377764e-05 -7.464692038068168e-05 0.00023409648029442645 0.0004430573696239989 0.0004216515446395667 0.0004379175444651372 -8.246774412618264e-05 3.444804597755278e-05 0.00041858761306216483 0.00042194773507353686 -8.359588535254295e-06 0.0006584346993120998 -5.9727907494921555e-05 -7.809083964473148e-05 1.0113799510366702e-05 -2.1499251846511386e-06 0.0003081218865149162 0.00048195218231401416 -9.43633759399694e-05 2.7305728734274852e-05 2.3194183819430494e-05 0.0003751264881372968 2.2127035737799842e-05 0.0005866982501360685 0.0001348826075847831 0.00011723282660073684 6.0579844425690075e-05 0.0004687530983604777 1.7559661303502134e-05 3.4356861095370853e-06 5.1161325108546e-05 4.070977862613762e-05 3.186347256074824e-05 -1.769762083551866e-05 7.403508012987695e-05 7.066540968454909e-05 8.302542370210408e-05 7.907614222323635e-05 7.773450954959089e-05 7.386372841381561e-05 0.00042584754158603484 -6.924199260643445e-05 4.495447800640774e-06 0.00039743103181683883 0.0005795200756177956 8.613239004903781e-05 8.003020281263381e-05 -7.413319951296664e-05 -5.3187026085147406e-05 0.0007614413792275123 0.00046453298475572144 7.732423212365167e-05 0.0006643446959195246 7.898725188563807e-05 9.003921573938509e-05 0.000490124370960117 7.553617061958307e-05 7.012799294683324e-05 8.626667423930224e-05 0.0004510794581125229 9.244318752194519e-05 0.0004561881803040403 0.0004510467491622794 6.451428008259805e-05 8.49949739529109e-05 8.91549207452599e-05 9.106589714109622e-05 8.386291011670134e-05 9.386389824311499e-05 8.21879321259632e-05 8.863676038590491e-05 8.408134325633732e-05 8.922070176365371e-05 8.977246998759009e-05 8.610062442918419e-05 8.690014850620181e-05 8.800460711420432e-05 8.800120851322577e-05 8.487065256396114e-05 8.167554812899683e-05 8.447779760322968e-05 8.383013696587209e-05 8.591293185744813e-05 8.495738732399106e-05 -2.1494709284066272e-05 6.052206365891372e-05 7.273598501070832e-05 6.372488638225218e-05 6.765221994049219e-05 6.114790989144575e-05 7.390489644100774e-05 7.047603686265366e-05 8.177036717055354e-05 7.653395900502273e-05 9.714849392680908e-05 4.768962066252472e-05 4.389776184900861e-05 0.00028296799274866237 0.00041589268217785057 0.00038007480973762205 0.0004378389266555323 -3.641723804514129e-05 -6.414894012827887e-05 -1.7727147068520435e-06 0.0004409359385503571 0.00029987871504825883 5.161822833686489e-05 3.0182960132824713e-05 0.00040542100664896024 -6.865049663422298e-05 0.0007599859980270077 0.0007285078660344656 7.415102251204919e-05 7.030490108184463e-05 5.924904535433011e-05 6.448401517402432e-05 9.194244909993554e-05 9.556020629036264e-05 8.882436591863948e-05 8.842779986876531e-05 8.51821010377865e-05 8.618255583227723e-05 8.728301232953073e-05 8.813268780806045e-05 8.830845715058022e-05 8.368403470248674e-05 8.585679508069644e-05 8.663930255778386e-05 8.669053835395259e-05 8.794570067120888e-05 8.288402005519167e-05 8.700196796219417e-05 5.622829991482366e-05 8.356310485521289e-05 8.385