<?xml version="1.0"?>
<VTKFile type="UnstructuredGrid"  version="0.1"  >
<UnstructuredGrid>
<Piece  NumberOfPoints="1289" NumberOfCells="2413">
<Points>
<DataArray  type="Float64"  NumberOfComponents="3"  format="ascii">0 0 0  0 0.41 0  2.2 0.41 0  2.2 0 0  0.1 0.1 0  0.1 0.3 0  0.8 0.3 0  0.8 0.1 0  0.25 0.2 0  0.248976 0.210065 0  0.245948 0.219718 0  0.241038 0.228563 0  0.234448 0.23624 0  0.226448 0.242432 0  0.217365 0.246888 0  0.207571 0.249423 0  0.197468 0.249936 0  0.187467 0.248404 0  0.17798 0.24489 0  0.169395 0.239539 0  0.162062 0.232569 0  0.156283 0.224265 0  0.152293 0.214968 0  0.150257 0.205058 0  0.150257 0.194942 0  0.152293 0.185032 0  0.156283 0.175735 0  0.162062 0.167431 0  0.169395 0.160461 0  0.17798 0.15511 0  0.187467 0.151596 0  0.197468 0.150064 0  0.207571 0.150577 0  0.217365 0.153112 0  0.226448 0.157568 0  0.234448 0.16376 0  0.241038 0.171437 0  0.245948 0.180282 0  0.248976 0.189935 0  1.1 0 0  1.1 0.41 0  0.1 0.2 0  0.45 0.1 0  0.45 0.3 0  0.55 0 0  0.275 0.1 0  0.275 0.3 0  0.275 0 0  0.55 0.41 0  0 0.205 0  0.825 0 0  0.825 0.41 0  0.275 0.41 0  0.1 0.15 0  0.1875 0.1 0  0.1 0.25 0  0.1875 0.3 0  0.132322 0.2 0  0.241426 0.253518 0  0.241426 0.146482 0  0.264574 0.17974 0  0.264574 0.22026 0  0.138434 0.187348 0  0.153372 0.150948 0  0.148413 0.164094 0  0.176495 0.136535 0  0.22768 0.143571 0  0.138434 0.212652 0  0.148413 0.235906 0  0.176495 0.263465 0  0.22768 0.256429 0  0.23125 0.3 0  0.24769 0.24094 0  0.23125 0.1 0  0.24769 0.15906 0  0.26253 0.193641 0  0.190482 0.137872 0  0.166753 0.146661 0  0.157737 0.244461 0  0.190482 0.262128 0  0.203107 0.261264 0  0.253635 0.22977 0  0.203107 0.138736 0  0.253635 0.17023 0  0.261028 0.206206 0  0.167707 0.251809 0  0.143629 0.224191 0  0.215302 0.2591 0  0.270465 0.245894 0  0.215302 0.1409 0  0.270465 0.154106 0  0.284052 0.202587 0  0.14375 0.3 0  0.209375 0.3 0  0.225966 0.278501 0  0.209375 0.1 0  0.225966 0.121499 0  0.211613 0.273759 0  0.211613 0.126241 0  0.143629 0.175809 0  0.1 0.175 0  0.133484 0.164832 0  0.144491 0.249539 0  0.1 0.225 0  0.133484 0.235168 0  0.3625 0.3 0  0.25691 0.253381 0  0.25691 0.146619 0  0.277205 0.188698 0  0.184724 0.275712 0  0.237372 0.268285 0  0.184724 0.124288 0  0.237372 0.131715 0  0.197578 0.273149 0  0.193656 0.286994 0  0.197578 0.126851 0  0.193656 0.113006 0  0.122953 0.187671 0  0.118362 0.153758 0  0.155372 0.258107 0  0.122953 0.212329 0  0.118362 0.246242 0  0.276394 0.27264 0  0.276394 0.12736 0  0.280965 0.170013 0  0.253125 0.3 0  0.14375 0.1 0  0.253125 0.1 0  0.269489 0.26014 0  0.269489 0.13986 0  0.303639 0.184297 0  0.165625 0.3 0  0.134742 0.273113 0  0.257831 0.274737 0  0.255279 0.128499 0  0.3625 0.1 0  0.165625 0.1 0  0.162031 0.132368 0  0.134955 0.126405 0  0.149334 0.125568 0  0.142936 0.139597 0  0.12695 0.140259 0  0.242514 0.285501 0  0.242514 0.114499 0  0.1 0.125 0  0.117483 0.12555 0  0.11154 0.139776 0  0.121875 0.1 0  0.109143 0.1125 0  0.126805 0.114 0  0.220313 0.29129 0  0.351562 0.287369 0  0.207222 0.2866 0  0.220312 0.10871 0  0.1375 0 0  0.20625 0 0  0.207222 0.1134 0  0.11722 0.17118 0  0.1 0.1625 0  0.0778409 0.16875 0  0.0862762 0.15625 0  0 0.15375 0  0 0.1025 0  0.11722 0.22882 0  0.1 0.2375 0  0 0.3075 0  0.0862762 0.23125 0  0.0598995 0.222547 0  0.0860223 0.2125 0  0.289584 0.181469 0  0.300267 0.16446 0  0.163832 0.269071 0  0.149597 0.273325 0  0.1 0.275 0  0.268498 0.285953 0  0.31875 0.3 0  0.294154 0.254672 0  0.296875 0.3 0  0.293558 0.271845 0  0.285095 0.286799 0  0.324298 0.264316 0  0.307866 0.263745 0  0.317093 0.234901 0  0.315485 0.281219 0  0.316547 0.250625 0  0.344693 0.243731 0  0.331592 0.251147 0  0.35129 0.270663 0  0.338689 0.263683 0  0.340625 0.3 0  0.249849 0.264383 0  0.265097 0.11422 0  0.284688 0.156136 0  0.242188 0.324017 0  0.0856613 0.2625 0  0.132812 0.0612217 0  0.264062 0.0612217 0  0.198437 0.07598340000000001 0  0.0860223 0.1375 0  0.0794526 0.191089 0  0.285228 0.140397 0  0.298655 0.148737 0  0.31875 0.1 0  0.327335 0.15374 0  0.296875 0.1 0  0.312289 0.155283 0  0.313348 0.135607 0  0.321802 0.173916 0  0.298433 0.134116 0  0.112124 0.2625 0  0.127526 0.259083 0  0.121875 0.3 0  0.0682687 0.241503 0  0.1 0.2875 0  0.117762 0.28125 0  0.107813 0.3 0  0.103906 0.313849 0  0.0778409 0.28125 0  0.1375 0.41 0  0.0862762 0.29375 0  0.08886860000000001 0.24375 0  0.307812 0.338778 0  0.307812 0.292227 0  0.33216 0.279164 0  0.387888 0.266414 0  0.264063 0.31948 0  0.110937 0.07598340000000001 0  0.242188 0.07598340000000001 0  0.319914 0.11839 0  0.340625 0.1 0  0.334448 0.133793 0  0.329687 0.108539 0  0.346259 0.118491 0  0.360334 0.173636 0  0.327539 0.205033 0  0.132812 0.288712 0  0.362436 0.278836 0  0.368105 0.259418 0  0.4125 0.41 0  0.329687 0.324017 0  0.329687 0.292306 0  0.285938 0.318952 0  0.417187 0.338778 0  0.324481 0.14148 0  0.351562 0.106771 0  0.40625 0.1 0  0.341028 0.168342 0  0.319221 0.190479 0  0.335292 0.184501 0  0.305563 0.20794 0  0.220313 0.31948 0  0.132812 0.332772 0  0.0865876 0.311259 0  0.0598995 0.302453 0  0.0906541 0.343255 0  0.353543 0.255837 0  0.36574 0.237633 0  0.405007 0.254279 0  0.275795 0.352123 0  0.4125 0 0  0.35493 0.137394 0  0.366563 0.120618 0  0.35917 0.205246 0  0.198438 0.318952 0  0.0626109 0.263892 0  0.40625 0.3 0  0.354809 0.155936 0  0.386512 0.146872 0  0.373101 0.159939 0  0.384375 0.1 0  0.343394 0.19929 0  0.350682 0.185683 0  0.368101 0.189748 0  0.344016 0.221511 0  0.391108 0.213329 0  0.376279 0.204783 0  0.398843 0.182768 0  0.375804 0.222746 0  0.390665 0.196958 0  0.394004 0.23518 0  0.359883 0.222828 0  0.419908 0.204359 0  0.404243 0.204783 0  0.412615 0.224526 0  0.20625 0.41 0  0.165625 0.325257 0  0.0347982 0.244954 0  0.379558 0.247154 0  0.34165 0.147603 0  0.372264 0.136992 0  0.388988 0.121989 0  0.373437 0.108554 0  0.351562 0.31948 0  0.391367 0.16527 0  0.399572 0.223324 0  0.452011 0.227371 0  0.40877 0.239392 0  0.431491 0.237337 0  0.421224 0.250459 0  0.449619 0.262098 0  0.418865 0.276779 0  0.437063 0.252274 0  0.415673 0.263227 0  0.430988 0.266772 0  0.402767 0.273419 0  0.452967 0.244883 0  0.428125 0.3 0  0.408502 0.286186 0  0.384375 0.3 0  0.392267 0.285807 0  0.465927 0.219339 0  0.43489 0.283846 0  0.376424 0.286289 0  0.625 0.3 0  0.473533 0.205186 0  0.461713 0.255517 0  0.5375 0.3 0  0.465725 0.235405 0  0.44631 0.201425 0  0.471875 0.3 0  0.494307 0.227729 0  0.459448 0.206736 0  0.462294 0.180792 0  0.478933 0.227536 0  0.486793 0.21381 0  0.486322 0.251373 0  0.50065 0.215318 0  0.54005 0.175389 0  0.474633 0.189893 0  0.512916 0.208697 0  0.49531 0.199967 0  0.475889 0.175275 0  0.625 0.1 0  0.459311 0.153933 0  0.513645 0.242704 0  0.392892 0.248539 0  0.374815 0.271913 0  0.365974 0.14871 0  0.395312 0.109184 0  0.417061 0.123981 0  0.483196 0.277003 0  0.381967 0.179632 0  0.429898 0.219374 0  0.433473 0.206165 0  0.43149 0.181038 0  0.444208 0.215487 0  0.472985 0.247309 0  0.49375 0.3 0  0.475579 0.262714 0  0.49916 0.274293 0  0.501175 0.184809 0  0.514164 0.225681 0  0.543648 0.214977 0  0.5341630000000001 0.23481 0  0.527396 0.216171 0  0.5375 0.1 0  0.534548 0.202315 0  0.561545 0.192513 0  0.5494289999999999 0.201221 0  0.570923 0.218346 0  0.412582 0.149833 0  0.489327 0.264745 0  0.502439 0.254775 0  0.462391 0.271166 0  0.496775 0.241732 0  0.5294410000000001 0.268606 0  0.482812 0.291099 0  0.46879 0.285038 0  0.452663 0.284065 0  0.51789 0.257882 0  0.53408 0.252026 0  0.560142 0.243543 0  0.545708 0.243474 0  0.547532 0.229019 0  0.55282 0.265323 0  0.398971 0.153424 0  0.400349 0.135684 0  0.410135 0.168145 0  0.428823 0.161323 0  0.415266 0.183779 0  0.329687 0.0810483 0  0.395312 0.0612217 0  0.373437 0.318952 0  0.439062 0.324017 0  0.561816 0.229354 0  0.585029 0.239287 0  0.431827 0.139854 0  0.446796 0.168929 0  0.351562 0.07598340000000001 0  0.395313 0.318944 0  0.54337 0.150762 0  0.460937 0.31948 0  0.418412 0.137529 0  0.428125 0.1 0  0.442783 0.152332 0  0.450742 0.134294 0  0.373437 0.0805201 0  0.384383 0.342558 0  0.482812 0.318952 0  0.429239 0.127457 0  0.444274 0.117405 0  0.426548 0.113815 0  0.49375 0.1 0  0.488954 0.113984 0  0.457973 0.121842 0  0.471621 0.137346 0  0.515625 0.325257 0  0.48125 0.41 0  0.417187 0.07598340000000001 0  0.496363 0.126778 0  0.479043 0.155715 0  0.439062 0.0805201 0  0.481795 0.126919 0  0.471875 0.1 0  0.489227 0.142159 0  0.515625 0.1 0  0.520062 0.147117 0  0.501244 0.161791 0  0.505431 0.112984 0  0.505344 0.14029 0  0.526563 0.119081 0  0.5181750000000001 0.131908 0  0.539868 0.136937 0  0.460937 0.108383 0  0.474242 0.114415 0  0.460937 0.0810483 0  0.487841 0.167168 0  0.526563 0.0612217 0  0.526563 0.106406 0  0.537619 0.112743 0  0.58125 0.1 0  0.559375 0.1 0  0.482812 0.08105569999999999 0  0.471883 0.0587655 0  0.570312 0.129396 0  0.548437 0.07598340000000001 0  0.504687 0.08105569999999999 0  0.49375 0.0470127 0  0.570312 0.112663 0  0.592798 0.12103 0  0.553986 0.12103 0  0.570312 0.0805201 0  0.48125 0 0  0.114787 0.2 0  0.160769 0.284765 0  0.175816 0.288361 0  0.162602 0.116048 0  0.154687 0.07598340000000001 0  0.176562 0.0805201 0  0.0598995 0.147547 0  0.307812 0.109924 0  0.291279 0.117157 0  0.278491 0.112989 0  0.285937 0.07598340000000001 0  0.307812 0.0805201 0  0.296928 0.196743 0  0.318141 0.218507 0  0.330208 0.227509 0  0.301397 0.225668 0  0.302706 0.241401 0  0.292574 0.21424 0  0.282762 0.230935 0  0.284351 0.244775 0  0.269553 0.23261 0  0.278572 0.217242 0  0.226924 0.342606 0  0.446928 0.185396 0  0.515625 0.3 0  0.504687 0.288879 0  0.515256 0.276534 0  0.529479 0.285328 0  0.58125 0.3 0  0.541969 0.272936 0  0.559375 0.3 0  0.556796 0.282529 0  0.543473 0.287206 0  0.581429 0.267774 0  0.566728 0.271171 0  0.570869 0.255585 0  0.577404 0.283865 0  0.603125 0.3 0  0.597531 0.28035 0  0.570312 0.338778 0  0.592188 0.292492 0  0.603513 0.256094 0  0.614063 0.286265 0  0.610329 0.27064 0  0.632708 0.251285 0  0.657223 0.261594 0  0.618789 0.257807 0  0.614188 0.22987 0  0.630935 0.265614 
[...]
<PointData  Scalars="p"> 
	<DataArray  type="Float64"  Name="p"  format="ascii">
0.0004551981596965259 0.00043455333339963235 -5.8391155425454276e-08 -4.0461235562633985e-08 0.0005081492880287408 0.0005040624683148046 7.210781926425548e-05 6.758418970520907e-05 -0.0002829714394865326 -0.00029197258743950415 -0.0003115072104669323 -0.00033251021790986187 -0.0003667515747875356 -0.00042030210645760673 -0.000512870150163454 -0.0006515533086178949 -0.0007641656733088271 -0.0009330885427691206 -0.0007036854001624334 -0.00031874082320744023 0.00022335588976533718 0.0008911674804445354 0.0014247194122961675 0.001757894176574684 0.0017507630595088033 0.0014017939263658678 0.0008694802887270787 0.00020246242292232253 -0.00043708902205648483 -0.000716745284363706 -0.000897081557207233 -0.000770575372290017 -0.0006469890717217618 -0.0005129193019024319 -0.00041800357304848265 -0.00036448389279341664 -0.00032968258649329466 -0.0003088349746624627 -0.0002918384188485931 8.898668430434221e-05 8.039903209551647e-05 0.001142988961245923 -0.00014641317072131298 -0.00013447636820261447 -4.7110798495016684e-05 -0.0001720044429091693 -0.00017581380171632308 2.9131231713388497e-05 -3.350574607477177e-05 0.0007442673216996623 5.6020903027967035e-05 5.974212878762328e-05 4.902857238266595e-05 0.0008107106425183314 2.3423360945817417e-05 0.0008127014177564623 3.73540357922917e-05 0.0015645411551479158 -0.0003505821936777971 -0.000346847448684223 -0.0003062771151758433 -0.00030697010098508374 0.0015125314816833658 0.00031250386672196763 0.0007211454815241546 -0.00034331873085491067 -0.0004239452344799079 0.0015287044330692702 0.0007353717134125171 -0.00032389375664591586 -0.0004240072764183699 -0.0001263318475497848 -0.0003378270477367573 -0.0001299948975533273 -0.0003342894755403746 -0.0002947910674433479 -0.0005991824646514534 -0.00020652759749203788 0.00020840911333784104 -0.0006090152219154908 -0.0006096968473870565 -0.00032038689811275716 -0.0006094739462873525 -0.0003182554596855456 -0.00029495047953423745 -0.00023236157368317843 0.001179446539832434 -0.0005099642917086258 -0.00031608740984504863 -0.0005073625414786877 -0.0003125283776379759 -0.00030099782132032393 0.00034219324125849384 -9.105179490465988e-05 -0.00031089004572693507 -6.120844295020638e-05 -0.00029868960429785057 -0.0003975342495414514 -0.00039624480083094027 0.001160007809962077 0.0010204436149363258 0.0010130000814365355 0.0005465610981531963 0.0010420733270726566 0.0010395929327930453 -0.00020073703380683424 -0.00032158362783813474 -0.0003196157747758357 -0.00030086421057520064 -0.00021910424905049035 -0.0003599252543812543 -0.00022747046489548324 -0.0003602277384612133 -0.0003533278958596426 -0.00012518231022380462 -0.00033867114330540327 -0.00012216825800860122 0.001347464874914525 0.0008696669494684254 0.0002608155778081139 0.0013476501782643043 0.0008783652289843226 -0.00029063380167448786 -0.00029213687062062374 -0.0003109947254515959 -0.00016817590681614142 0.00033810757848354474 -0.00014998021502480568 -0.0003117819333045698 -0.00030829511828973124 -0.00030761651267584685 0.00019054932897304266 0.0005131085846094978 -0.00030627433268301524 -0.0002986532918980978 -0.00020928733568431084 0.00021011386207484068 0.00011360173633651098 0.00048872130450575 0.0003392315462223144 0.0004242587245506292 0.0006429285858253582 -0.0002490751479378752 -0.00023953959116604096 0.0006221171425752831 0.0005848541192564118 0.0007078039955144176 0.00044962268023426735 0.000535142490946786 0.00048309719255173756 -0.00017498237459525107 -0.0002438598330443987 -0.00021768827534293607 -0.00017578167359763618 0.0003754207906778303 0.00020018796699510343 -0.00019627643633976833 0.0010819918817296895 0.0009129296301332543 0.0008764958889668663 0.0008217215544726598 0.0006784486375059275 0.0005402424091768498 0.0010867879098448302 0.0009359794679292806 0.0005138859108432883 0.0008977055299513462 0.0008343752349715217 0.0009925262022982672 -0.0003067357666059711 -0.0003119050975980096 6.110278708237296e-05 0.0003172044480850556 0.000624770958313315 -0.00025078231175810383 -0.0001975396969593649 -0.0003161156802553161 -0.00019915330122817113 -0.00030201628138723285 -0.000250299801986409 -0.0003067787125411133 -0.0003067565734180646 -0.0003152906508428923 -0.00027242798766733404 -0.0003140103358501502 -0.0003072370859748855 -0.0003108671007262563 -0.0002853292649382648 -0.0002990867153359131 -0.00021679743921731553 -0.000326964720372987 -0.00024669020699770667 -0.0003112082339032696 -1.0467639381062475e-05 0.0007173429720832232 0.0003681005418041348 -7.288014286182259e-06 0.00013052458475229877 0.0006953722920430789 0.0009544563099225424 -0.00030481815879950165 -0.00030974785245339355 -0.00020043955562344405 -0.0003100582101441021 -0.00019793578078801963 -0.00031144102238440534 -0.0003042238542188255 -0.00030975696981057116 -0.00030009523632769326 0.0006983974166087211 0.0006511353927336897 0.00045013460115802493 0.0007858452787226593 0.000567429309627134 0.0005452349680730329 0.00048265185489537884 0.0004525315017907831 0.0005978045869920218 0.00035440905172203 0.0005461913962360434 0.000841942246169244 -7.371374637210422e-05 -0.00023658495577941676 -0.00027835247320307644 -0.0002588431491364388 -7.880838279652882e-05 0.00043676582893366925 -4.357926121644214e-06 -0.0002716863039903522 -0.0002142114241812014 -0.0002975487277350155 -0.00023872107706400566 -0.0002710839315580098 -0.0002992426733099536 -0.00030521319155393936 0.00042635248495286016 -0.00026483254291340645 -0.0002841532658646394 -7.582173110754823e-05 -0.00012335061991582968 -0.00024272720389915118 -0.00010915376199209977 -0.00010625061413265748 -0.00030422791636296187 -0.00023038104929660953 -0.00018688017200211283 -0.00030736897735829735 -0.0003061755479569554 -0.0003049597696934267 -0.00030680341166516135 -3.130666960831335e-06 0.0003648794321370809 0.00048822616247283545 0.0005274848401460425 0.0004206176771791615 -0.0002982222098051075 -0.0002933793141906399 -0.0002459933643377921 1.5674985912627342e-05 -0.00010424081061404153 -0.0002954257466997078 -0.0002637409722335529 -0.0002939414047955624 0.00010295589493810783 0.0006741754901813624 -0.0001753104289117517 -0.0003033848393102908 -0.00028380528570910415 -0.0002945157728767838 -0.00020215187230506954 -0.00030101637479580526 -0.00030012018358764364 -0.00029078490212185035 -0.0003040576783326458 -0.0002679676246595863 -0.0002824248812032841 -0.000267710652331472 -0.0002839460493449769 -0.0002708592841820078 -0.0002650023775334667 -0.0002959743952394215 -0.00023278270452185384 -0.0002537473317968814 -0.00024073041469503892 0.00021192815470441492 0.0002359148469710913 0.0007010198819426658 -0.00027979528543745595 -0.00030538154040548823 -0.00028663267968265146 -0.0002537860033960775 -0.00023293894740285248 -0.0001485328187641107 -0.00028073937243494764 -0.0002582011958541921 -0.0001760840140051279 -0.00024516666288361004 -0.00021084791531901092 -0.00022379078344077826 -0.00017360899981508268 -0.0002048655770717522 -0.00019787516803102244 -0.00022483613805506327 -0.00019945342286101824 -0.00023183754631670703 -0.00017260735337579864 -0.00015674856365028298 -0.00020404647320757216 -0.00019768923962744966 -0.00022080991065999674 -0.00015115732251431237 -0.00017541928520518795 -0.00023643822035006732 2.6673665682668592e-05 -0.0001397066344558354 -0.00015455788782430807 -3.811570799818946e-05 -0.00015068890338830284 -0.0001919776407423433 -0.00010956256592630342 -9.747816683749612e-05 -0.0001656475325023376 -0.0001731217735468702 -0.00012637471277684949 -0.00011200918477880832 -0.00011318513529265759 -8.503222612621024e-05 -1.3463600304662871e-05 -0.00014361755510373196 -6.191389178265385e-05 -9.789504350148205e-05 -0.00014808592623052758 3.35324029996858e-05 -0.0001851656534961057 -6.57163800982569e-05 -0.00026353639726565557 -0.0002624010002351963 -0.000296312916664243 -0.00021932613050836257 -0.00022845822680098705 -0.00011054754874823257 -0.0002843076835862675 -0.00021501697748331275 -0.00021155488687897673 -0.0002269531926805419 -0.0001914489619706444 -0.00013702825664383423 -8.25576581056469e-05 -0.00012920131361701678 -8.968367294950737e-05 -9.077844041670947e-05 -6.124397961454493e-05 -9.003610569429575e-06 -2.9946545140147336e-05 -3.631577670643614e-05 -3.919259510388174e-05 -2.2119348999368595e-05 2.365292851424674e-05 3.3127441966698e-06 2.8864599538543313e-05 -0.0002582386384001043 -0.00010639614500434824 -8.583579064905296e-05 -0.00014740770996778392 -9.445621246090303e-05 -4.646923035148351e-05 -0.00010310418247000511 -0.00012705180013216258 -0.00014972464947175953 -6.16391488227237e-05 -3.535316850075232e-05 3.869433913772077e-06 -1.639530917150542e-05 -7.86685283316707e-06 -1.4397291962401158e-05 -0.0002739242535622238 -0.0002641236464503641 -0.00026172369630232136 -0.0002383020039505113 -0.0002481503548077074 -0.00015086996810091224 -0.00012088120827298985 -0.00015374071453497283 -0.00011225305660747509 1.2403167481470115e-05 3.598811248558538e-05 -0.0002270562843099626 -0.0002067948040798125 -0.00014466935185455113 -0.00014238440353561783 -1.1416264109065762e-05 -0.00010207629640653479 -0.0002420335083333666 -0.00017286915225856229 -0.00021482874734896288 -0.0001912407709598616 -0.00016027758496971607 -0.00010444926770553103 -8.833466698167319e-05 -0.00021640339844790406 -0.000177976751507938 -0.00020389361691406507 -9.304990354574629e-05 -0.00010937907607377269 -0.00016658366151914614 -0.00015376801868248455 -5.128674074404582e-05 -7.229241442799319e-05 -0.00013078337186201791 -9.955338010204175e-05 -0.0001442859024162292 -0.0001345950315158311 -0.0001285079598676814 -0.00011925072495056687 -0.00012029006701778153 -6.27187613799152e-05 -5.699597621159039e-05 -9.631238188614868e-05 -7.930630050399472e-05 -8.667461451768372e-05 -4.951659175196782e-05 -6.23134754784989e-05 -2.118787613911802e-05 -0.00014658686499707574 -0.00012904765582541703 -0.0001198656236244702 -0.00012425319356488139 -5.37503097294432e-05 -5.1236977074136967e-05 -3.367204828872965e-05 4.984108098775414e-06 -1.4683686377733758e-05 -8.957143450074718e-05 -9.634377225778534e-05 1.777642064796261e-05 -3.24153945980978e-05 -7.68738479106983e-05 -7.338215713395337e-05 5.305687104892414e-06 3.256166750896085e-05 -9.39606347373382e-06 -1.8258881377328628e-05 -9.033684541300701e-05 0.0013125022364497733 0.0002005451035222526 1.913655893338183e-05 0.0001577697264926599 0.0003029161997346933 0.0001986420481574317 0.0007212076223696252 -0.00024421091495854336 -0.00025959441971730646 -0.00023744857056656664 -9.020223835877403e-05 -0.00012968924040981797 -0.0003040951536878791 -0.000309728133504921 -0.000310762986527009 -0.0003131085151167807 -0.00031682605770631225 -0.0003067893958190342 -0.00031430000520350505 -0.0003166494835846076 -0.0003156804839656356 -0.00030595772379214524 9.39257161238478e-05 -0.00019867060778240434 -6.098182943327997e-05 -7.75162244168964e-05 -6.467783856763034e-05 -4.707485219776376e-05 -1.5770620652969954e-06 -2.9976249349659714e-05 -1.72744471250981e-05 -1.5737846406567307e-05 -3.032926215066731e-05 1.6288584609531917e-05 -7.152939385132432e-07 1.0846315651582948e-05 3.197185054828151e-06 1.3750691713094747e-05 2.3545743743043927e-05 -2.111011671284511e-05 1.1035831085181032e-05 4.4056433970201225e-05 3.0095877419596295e-05 3.959449821535855e-05 6.939438022114738e-05 7.545760452417092e-05 5.5191891403195345e-05 6.778872089384059e-05 5.7855061907305373e-05 6.600228683425139e-05 4.460783166151525e-05 8.8529895086141e-05 5.7064620889573467e-05 4.363417603285616e-05 5.901219058072432e-05 3.5504192844614705e-05 6.123048471270438e-05 -3.400871126976983e-05 -3.4782386495831465e-06 2.9580636791467448e-05 3.014484132617001e-05 4.824067944674661e-05 9.087543034087028e-05 1.2613951806225228e-05 6.056717546956017e-06 8.014656111565909e-05 4.9983284900706656e-05 9.831330227441083e-05 5.992794376898375e-05 7.337346134973953e-05 9.403203616543883e-05 8.815188316625534e-05 0.00010819374438998014 8.039508231334422e-05 9.223151315925488e-05 0.00010128803236148431 0.00010542423844865226 0.00010337103140806376 0.00010076595269429764 9.94079938563162e-05 0.00010933256375337034 0.00010457690682301487 8.808187801005492e-05 9.963283305465927e-05 7.267884867889937e-05 6.482300048783009e-05 6.153068083671996e-05 0.00010849540375099521 8.592493308097518e-05 8.413334390263154e-05 7.445539711499967e-05 7.60627103544721e-05 9.21880196537922e-05 0.00010075535372319118 9.611388130947828e-05 9.820507952829135e-05 8.70808850904207e-05 8.843981381196699e-05 0.00011122793145353092 0.0001035876349794661 7.108651912188124e-05 7.739679412329268e-05 8.202980690079067e-05 8.080352142295059e-05 8.536428408032799e-05 7.932097426871737e-05 7.785686051855189e-05 6.672002376745721e-05 7.786932125729997e-05 6.137258004088037e-05 1.889737765765493e-05 1.9354581694469903e-05 4.0699846938792926e-05 0.00011194609171525654 9.691869391948772e-05 0.00010765550038178959 0.00010636463683343385 5.8244391501494635e-05 2.472370926806217e-05 9.664755905962087e-05 3.632766254899145e-05 0.0001096185870440718 0.00011032313440690391 0.00010514012599642616 0.00010805711433228711 5.480322132194814e-05 8.377568749597494e-06 4.3425346408560675e-05 0.00010716736994662951 0.00010780981333867089 0.00011037758758770656 9.614261363001106e-05 0.00010563174009355467 0.00010193525790021107 0.00010431097438369802 0.00010151582970192039 0.00010326815490315671 0.00010775095669809914 0.00011176470118029862 0.000106036167677572 0.00011224674090209847 0.00011211847002544844 5.8161690282891686e-05 9.026069672456517e-05 0.00010791840552061651 0.00011219358728141895 0.0001101662103916002 0.00011196174495996987 0.00010991928513227428 0.00011225420059630506 0.00010765678269041598 0.00011021424366242452 0.00010281129212433178 0.00011015818225535755 0.00010893579122297696 0.0001081254591238711 9.760381341421792e-05 0.00010472098109376233 9.88537623035816e-05 4.760097974433512e-05 9.036695821446972e-05 7.439638560371055e-05 6.457217673274368e-05 9.51040322252506e-05 9.279441007093533e-05 0.00010201053874747889 0.00010793704701435991 9.264004369831834e-05 9.118896426702164e-05 0.00010116132885345826 9.693482889211185e-05 9.908703845497183e-05 7.991565263267907e-05 9.115431394522068e-05 7.873411099387432e-05 8.549294750661272e-05 5.607435421411951e-05 6.649508553447705e-05 7.236623204555801e-05 5.485176695088968e-05 6.602534709111168e-05 8.090318532386032e-05 7.753124969987837e-05 4.375390468108404e-05 5.352866192382057e-05 6.69069516999885e-05 5.080788414272889e-05 2.056012664106757e-05 4.2686265057499235e-05 3.110382892681051e-05 7.753891713494495e-05 8.137561314389629e-05 8.359976127108213e-05 5.854659509891101e-05 7.497127883868546e-05 4.488667073829181e-05 1.9721122790623203e-05 9.240338046404378e-07 3.469891880648304e-05 3.715754327681115e-05 5.033724724453918e-06 1.198621247529909e-05 1.524353163921013e-05 6.303571684832986e-05 6.223456303605895e-05 6.792937129101399e-05 2.3581009201956054e-05 8.396855800227208e-05 4.992636154843341e-05 9.972550681664931e-06 -1.0182827155546177e-05 3.550928852783542e-05 2.160367320254284e-05 6.470231806718382e-05 -6.517666561071506e-06 3.555968165550664e-05 7.6249174402308e-05 7.235280772411271e-05 3.565930716655764e-05 4.4588306441951445e-05 6.871565691838904e-05 7.318519454346226e-05 6.726284869722477e-05 8.693859417757409e-05 4.842909192290765e-05 8.204852821970002e-05 5.5151555595607005e-05 8.718518352621346e-05 7.490339632612873e-05 8.54296620229719e-05 5.898082990940924e-05 7.25918187522573e-05 8.008413654698054e-05 9.79706839533639e-05 9.869219611172625e-05 9.227240055939583e-05 9.395136494617291e-05 9.597754756983063e-05 9.997958942638829e-05 0.00010256570345693562 0.0001042508369579095 0.0001056012274233058 0.00010205433944697697 8.810814289716395e-05 9.701455068337746e-05 -4.693356432392545e-05 -5.9792735970106045e-05 -5.842611555899914e-05 -5.1609317003511765e-05 -6.449890596855612e-05 -6.697922510573888e-05 -3.0918656906719163e-05 -3.837402666434364e-05 -1.7595059713157108e-05 5.276161789096238e-06 -8.382537134205082e-05 -0.00010529940311177288 5.070500003977671e-05 0.00026835714298981676 -8.733590112329093e-05 3.097967213350536e-05 5.1377250043680544e-05 5.5232412014732135e-05 0.0001055634024908287 0.00011077972146667583 -1.3905190118002548e-05 3.740134531339119e-05 -6.866756671802603e-05 2.8250852592185924e-05 9.077474155736339e-05 8.845828419651357e-05 9.925817394332885e-05 8.01793575643016e-05 0.00010437910262805804 0.00010778164592380299 6.585612814851906e-05 4.8210274808996625e-05 3.149655645240695e-05 1.2916412383747435e-05 -2.801268797988856e-05 5.330708165659664e-05 5.9445455659545324e-05 -7.81098344979436e-05 0.00012957293739454195 6.84770805540457e-05 3.940209437691545e-05 0.00011476646435481502 -9.623569065887571e-06 0.0005717889873871372 0.0004605001591995692 -3.880658299643133e-05 7.336448093386676e-05 5.658273076425886e-05 9.33175651525834e-05 -0.00010799794128493265 -0.00010445680882387863 -6.45851854022647e-05 -8.320842726326843e-05 -2.432588366044695e-05 4.591460155330161e-05 -7.609581333898051e-05 0.00023400979818056638 0.00044326225965148373 0.0004216490812075932 0.00043794345849299996 -8.357335049193206e-05 3.2736634575748725e-05 0.00041882888663045774 0.00042195955072290317 -7.892749776234329e-06 0.0006585077227812645 -6.048320958109076e-05 -7.665378053975293e-05 6.761985111143337e-06 -2.3190025686606956e-06 0.00030804210741345917 0.00048199263203292517 -9.566269394559144e-05 2.5039569573666787e-05 2.356040221319786e-05 0.0003750833986904018 1.9067265168971174e-05 0.0005867596662566452 0.00013512667503876963 0.00011739073905639277 6.066350460574651e-05 0.0004689287343951507 2.1579486553417508e-05 6.907215754339419e-06 5.0735775579400204e-05 4.298355413093389e-05 3.463010809223432e-05 -1.602419792360952e-05 7.076430053940502e-05 6.609481546961076e-05 8.031515825760996e-05 7.822633645004998e-05 7.834105286396249e-05 7.401044068366711e-05 0.00042586211908007446 -6.804549897335922e-05 1.4830400514754084e-06 0.0003973987602942186 0.000579659798496411 8.624458820836327e-05 7.865523697530435e-05 -7.258121362351727e-05 -5.23553582686891e-05 0.0007615463720287815 0.00046470509693541953 7.372974915583783e-05 0.0006644682518669031 7.808666715233637e-05 9.065651942099808e-05 0.0004902847038509912 7.215528656901902e-05 6.648236210195734e-05 8.554633873188988e-05 0.00045125937629278737 9.188380981411468e-05 0.00045636661829046254 0.0004512301047548025 6.043999072956402e-05 8.759735898133791e-05 8.870297787122391e-05 8.936049818641428e-05 8.45364439310456e-05 9.479163769345928e-05 8.358372997521174e-05 9.069743852008747e-05 8.686962759764867e-05 9.073951079358721e-05 8.947310471550764e-05 8.762164874255563e-05 8.89085142695479e-05 8.970655213204931e-05 8.78610369931742e-05 8.852072297581009e-05 8.297682592175533e-05 8.761274152319426e-05 8.663493453081239e-05 8.930054079381502e-05 8.805362620957288e-05 -2.2691566985521145e-05 6.40441697776613e-05 7.677278947153107e-05 6.718649434588887e-05 7.177514589698321e-05 6.444088795365077e-05 7.803901977979728e-05 7.426511498669572e-05 8.350335794548925e-05 7.850947631327905e-05 9.468633915860128e-05 4.862763312326954e-05 4.397786650786503e-05 0.00028289216274298914 0.0004161231666939655 0.0003803449424830063 0.00043803934233332503 -3.567209895239376e-05 -6.311433309749993e-05 -4.632218000320041e-06 0.0004409626084495976 0.00030018267242000376 5.075358367091707e-05 3.362077105202537e-05 0.00040540582899967334 -6.70996100360173e-05 0.000760079138830434 0.0007286158964477328 7.127458084497205e-05 6.600359626192774e-05 5.6491746069150813e-05 6.0803773762333205e-05 9.173038935803711e-05 9.749287660203603e-05 8.955518282267405e-05 8.750224816342215e-05 8.290630683085384e-05 8.39611287612642e-05 8.554301463056254e-05 8.600696847401246e-05 8.692014187656471e-05 8.349820108763338e-05 8.532010831882478e-05 8.537072322720617e-05 8.598987019445101e-05 8.905912479455666e-05 7.977717289961297e-05 8.701784270255082e-05 5.6132100865874955e-05 8.065472561618239e-05 8.274819088