<?xml version="1.0"?>
<VTKFile type="UnstructuredGrid"  version="0.1"  >
<UnstructuredGrid>
<Piece  NumberOfPoints="1289" NumberOfCells="2413">
<Points>
<DataArray  type="Float64"  NumberOfComponents="3"  format="ascii">0 0 0  0 0.41 0  2.2 0.41 0  2.2 0 0  0.1 0.1 0  0.1 0.3 0  0.8 0.3 0  0.8 0.1 0  0.25 0.2 0  0.248976 0.210065 0  0.245948 0.219718 0  0.241038 0.228563 0  0.234448 0.23624 0  0.226448 0.242432 0  0.217365 0.246888 0  0.207571 0.249423 0  0.197468 0.249936 0  0.187467 0.248404 0  0.17798 0.24489 0  0.169395 0.239539 0  0.162062 0.232569 0  0.156283 0.224265 0  0.152293 0.214968 0  0.150257 0.205058 0  0.150257 0.194942 0  0.152293 0.185032 0  0.156283 0.175735 0  0.162062 0.167431 0  0.169395 0.160461 0  0.17798 0.15511 0  0.187467 0.151596 0  0.197468 0.150064 0  0.207571 0.150577 0  0.217365 0.153112 0  0.226448 0.157568 0  0.234448 0.16376 0  0.241038 0.171437 0  0.245948 0.180282 0  0.248976 0.189935 0  1.1 0 0  1.1 0.41 0  0.1 0.2 0  0.45 0.1 0  0.45 0.3 0  0.55 0 0  0.275 0.1 0  0.275 0.3 0  0.275 0 0  0.55 0.41 0  0 0.205 0  0.825 0 0  0.825 0.41 0  0.275 0.41 0  0.1 0.15 0  0.1875 0.1 0  0.1 0.25 0  0.1875 0.3 0  0.132322 0.2 0  0.241426 0.253518 0  0.241426 0.146482 0  0.264574 0.17974 0  0.264574 0.22026 0  0.138434 0.187348 0  0.153372 0.150948 0  0.148413 0.164094 0  0.176495 0.136535 0  0.22768 0.143571 0  0.138434 0.212652 0  0.148413 0.235906 0  0.176495 0.263465 0  0.22768 0.256429 0  0.23125 0.3 0  0.24769 0.24094 0  0.23125 0.1 0  0.24769 0.15906 0  0.26253 0.193641 0  0.190482 0.137872 0  0.166753 0.146661 0  0.157737 0.244461 0  0.190482 0.262128 0  0.203107 0.261264 0  0.253635 0.22977 0  0.203107 0.138736 0  0.253635 0.17023 0  0.261028 0.206206 0  0.167707 0.251809 0  0.143629 0.224191 0  0.215302 0.2591 0  0.270465 0.245894 0  0.215302 0.1409 0  0.270465 0.154106 0  0.284052 0.202587 0  0.14375 0.3 0  0.209375 0.3 0  0.225966 0.278501 0  0.209375 0.1 0  0.225966 0.121499 0  0.211613 0.273759 0  0.211613 0.126241 0  0.143629 0.175809 0  0.1 0.175 0  0.133484 0.164832 0  0.144491 0.249539 0  0.1 0.225 0  0.133484 0.235168 0  0.3625 0.3 0  0.25691 0.253381 0  0.25691 0.146619 0  0.277205 0.188698 0  0.184724 0.275712 0  0.237372 0.268285 0  0.184724 0.124288 0  0.237372 0.131715 0  0.197578 0.273149 0  0.193656 0.286994 0  0.197578 0.126851 0  0.193656 0.113006 0  0.122953 0.187671 0  0.118362 0.153758 0  0.155372 0.258107 0  0.122953 0.212329 0  0.118362 0.246242 0  0.276394 0.27264 0  0.276394 0.12736 0  0.280965 0.170013 0  0.253125 0.3 0  0.14375 0.1 0  0.253125 0.1 0  0.269489 0.26014 0  0.269489 0.13986 0  0.303639 0.184297 0  0.165625 0.3 0  0.134742 0.273113 0  0.257831 0.274737 0  0.255279 0.128499 0  0.3625 0.1 0  0.165625 0.1 0  0.162031 0.132368 0  0.134955 0.126405 0  0.149334 0.125568 0  0.142936 0.139597 0  0.12695 0.140259 0  0.242514 0.285501 0  0.242514 0.114499 0  0.1 0.125 0  0.117483 0.12555 0  0.11154 0.139776 0  0.121875 0.1 0  0.109143 0.1125 0  0.126805 0.114 0  0.220313 0.29129 0  0.351562 0.287369 0  0.207222 0.2866 0  0.220312 0.10871 0  0.1375 0 0  0.20625 0 0  0.207222 0.1134 0  0.11722 0.17118 0  0.1 0.1625 0  0.0778409 0.16875 0  0.0862762 0.15625 0  0 0.15375 0  0 0.1025 0  0.11722 0.22882 0  0.1 0.2375 0  0 0.3075 0  0.0862762 0.23125 0  0.0598995 0.222547 0  0.0860223 0.2125 0  0.289584 0.181469 0  0.300267 0.16446 0  0.163832 0.269071 0  0.149597 0.273325 0  0.1 0.275 0  0.268498 0.285953 0  0.31875 0.3 0  0.294154 0.254672 0  0.296875 0.3 0  0.293558 0.271845 0  0.285095 0.286799 0  0.324298 0.264316 0  0.307866 0.263745 0  0.317093 0.234901 0  0.315485 0.281219 0  0.316547 0.250625 0  0.344693 0.243731 0  0.331592 0.251147 0  0.35129 0.270663 0  0.338689 0.263683 0  0.340625 0.3 0  0.249849 0.264383 0  0.265097 0.11422 0  0.284688 0.156136 0  0.242188 0.324017 0  0.0856613 0.2625 0  0.132812 0.0612217 0  0.264062 0.0612217 0  0.198437 0.07598340000000001 0  0.0860223 0.1375 0  0.0794526 0.191089 0  0.285228 0.140397 0  0.298655 0.148737 0  0.31875 0.1 0  0.327335 0.15374 0  0.296875 0.1 0  0.312289 0.155283 0  0.313348 0.135607 0  0.321802 0.173916 0  0.298433 0.134116 0  0.112124 0.2625 0  0.127526 0.259083 0  0.121875 0.3 0  0.0682687 0.241503 0  0.1 0.2875 0  0.117762 0.28125 0  0.107813 0.3 0  0.103906 0.313849 0  0.0778409 0.28125 0  0.1375 0.41 0  0.0862762 0.29375 0  0.08886860000000001 0.24375 0  0.307812 0.338778 0  0.307812 0.292227 0  0.33216 0.279164 0  0.387888 0.266414 0  0.264063 0.31948 0  0.110937 0.07598340000000001 0  0.242188 0.07598340000000001 0  0.319914 0.11839 0  0.340625 0.1 0  0.334448 0.133793 0  0.329687 0.108539 0  0.346259 0.118491 0  0.360334 0.173636 0  0.327539 0.205033 0  0.132812 0.288712 0  0.362436 0.278836 0  0.368105 0.259418 0  0.4125 0.41 0  0.329687 0.324017 0  0.329687 0.292306 0  0.285938 0.318952 0  0.417187 0.338778 0  0.324481 0.14148 0  0.351562 0.106771 0  0.40625 0.1 0  0.341028 0.168342 0  0.319221 0.190479 0  0.335292 0.184501 0  0.305563 0.20794 0  0.220313 0.31948 0  0.132812 0.332772 0  0.0865876 0.311259 0  0.0598995 0.302453 0  0.0906541 0.343255 0  0.353543 0.255837 0  0.36574 0.237633 0  0.405007 0.254279 0  0.275795 0.352123 0  0.4125 0 0  0.35493 0.137394 0  0.366563 0.120618 0  0.35917 0.205246 0  0.198438 0.318952 0  0.0626109 0.263892 0  0.40625 0.3 0  0.354809 0.155936 0  0.386512 0.146872 0  0.373101 0.159939 0  0.384375 0.1 0  0.343394 0.19929 0  0.350682 0.185683 0  0.368101 0.189748 0  0.344016 0.221511 0  0.391108 0.213329 0  0.376279 0.204783 0  0.398843 0.182768 0  0.375804 0.222746 0  0.390665 0.196958 0  0.394004 0.23518 0  0.359883 0.222828 0  0.419908 0.204359 0  0.404243 0.204783 0  0.412615 0.224526 0  0.20625 0.41 0  0.165625 0.325257 0  0.0347982 0.244954 0  0.379558 0.247154 0  0.34165 0.147603 0  0.372264 0.136992 0  0.388988 0.121989 0  0.373437 0.108554 0  0.351562 0.31948 0  0.391367 0.16527 0  0.399572 0.223324 0  0.452011 0.227371 0  0.40877 0.239392 0  0.431491 0.237337 0  0.421224 0.250459 0  0.449619 0.262098 0  0.418865 0.276779 0  0.437063 0.252274 0  0.415673 0.263227 0  0.430988 0.266772 0  0.402767 0.273419 0  0.452967 0.244883 0  0.428125 0.3 0  0.408502 0.286186 0  0.384375 0.3 0  0.392267 0.285807 0  0.465927 0.219339 0  0.43489 0.283846 0  0.376424 0.286289 0  0.625 0.3 0  0.473533 0.205186 0  0.461713 0.255517 0  0.5375 0.3 0  0.465725 0.235405 0  0.44631 0.201425 0  0.471875 0.3 0  0.494307 0.227729 0  0.459448 0.206736 0  0.462294 0.180792 0  0.478933 0.227536 0  0.486793 0.21381 0  0.486322 0.251373 0  0.50065 0.215318 0  0.54005 0.175389 0  0.474633 0.189893 0  0.512916 0.208697 0  0.49531 0.199967 0  0.475889 0.175275 0  0.625 0.1 0  0.459311 0.153933 0  0.513645 0.242704 0  0.392892 0.248539 0  0.374815 0.271913 0  0.365974 0.14871 0  0.395312 0.109184 0  0.417061 0.123981 0  0.483196 0.277003 0  0.381967 0.179632 0  0.429898 0.219374 0  0.433473 0.206165 0  0.43149 0.181038 0  0.444208 0.215487 0  0.472985 0.247309 0  0.49375 0.3 0  0.475579 0.262714 0  0.49916 0.274293 0  0.501175 0.184809 0  0.514164 0.225681 0  0.543648 0.214977 0  0.5341630000000001 0.23481 0  0.527396 0.216171 0  0.5375 0.1 0  0.534548 0.202315 0  0.561545 0.192513 0  0.5494289999999999 0.201221 0  0.570923 0.218346 0  0.412582 0.149833 0  0.489327 0.264745 0  0.502439 0.254775 0  0.462391 0.271166 0  0.496775 0.241732 0  0.5294410000000001 0.268606 0  0.482812 0.291099 0  0.46879 0.285038 0  0.452663 0.284065 0  0.51789 0.257882 0  0.53408 0.252026 0  0.560142 0.243543 0  0.545708 0.243474 0  0.547532 0.229019 0  0.55282 0.265323 0  0.398971 0.153424 0  0.400349 0.135684 0  0.410135 0.168145 0  0.428823 0.161323 0  0.415266 0.183779 0  0.329687 0.0810483 0  0.395312 0.0612217 0  0.373437 0.318952 0  0.439062 0.324017 0  0.561816 0.229354 0  0.585029 0.239287 0  0.431827 0.139854 0  0.446796 0.168929 0  0.351562 0.07598340000000001 0  0.395313 0.318944 0  0.54337 0.150762 0  0.460937 0.31948 0  0.418412 0.137529 0  0.428125 0.1 0  0.442783 0.152332 0  0.450742 0.134294 0  0.373437 0.0805201 0  0.384383 0.342558 0  0.482812 0.318952 0  0.429239 0.127457 0  0.444274 0.117405 0  0.426548 0.113815 0  0.49375 0.1 0  0.488954 0.113984 0  0.457973 0.121842 0  0.471621 0.137346 0  0.515625 0.325257 0  0.48125 0.41 0  0.417187 0.07598340000000001 0  0.496363 0.126778 0  0.479043 0.155715 0  0.439062 0.0805201 0  0.481795 0.126919 0  0.471875 0.1 0  0.489227 0.142159 0  0.515625 0.1 0  0.520062 0.147117 0  0.501244 0.161791 0  0.505431 0.112984 0  0.505344 0.14029 0  0.526563 0.119081 0  0.5181750000000001 0.131908 0  0.539868 0.136937 0  0.460937 0.108383 0  0.474242 0.114415 0  0.460937 0.0810483 0  0.487841 0.167168 0  0.526563 0.0612217 0  0.526563 0.106406 0  0.537619 0.112743 0  0.58125 0.1 0  0.559375 0.1 0  0.482812 0.08105569999999999 0  0.471883 0.0587655 0  0.570312 0.129396 0  0.548437 0.07598340000000001 0  0.504687 0.08105569999999999 0  0.49375 0.0470127 0  0.570312 0.112663 0  0.592798 0.12103 0  0.553986 0.12103 0  0.570312 0.0805201 0  0.48125 0 0  0.114787 0.2 0  0.160769 0.284765 0  0.175816 0.288361 0  0.162602 0.116048 0  0.154687 0.07598340000000001 0  0.176562 0.0805201 0  0.0598995 0.147547 0  0.307812 0.109924 0  0.291279 0.117157 0  0.278491 0.112989 0  0.285937 0.07598340000000001 0  0.307812 0.0805201 0  0.296928 0.196743 0  0.318141 0.218507 0  0.330208 0.227509 0  0.301397 0.225668 0  0.302706 0.241401 0  0.292574 0.21424 0  0.282762 0.230935 0  0.284351 0.244775 0  0.269553 0.23261 0  0.278572 0.217242 0  0.226924 0.342606 0  0.446928 0.185396 0  0.515625 0.3 0  0.504687 0.288879 0  0.515256 0.276534 0  0.529479 0.285328 0  0.58125 0.3 0  0.541969 0.272936 0  0.559375 0.3 0  0.556796 0.282529 0  0.543473 0.287206 0  0.581429 0.267774 0  0.566728 0.271171 0  0.570869 0.255585 0  0.577404 0.283865 0  0.603125 0.3 0  0.597531 0.28035 0  0.570312 0.338778 0  0.592188 0.292492 0  0.603513 0.256094 0  0.614063 0.286265 0  0.610329 0.27064 0  0.632708 0.251285 0  0.657223 0.261594 0  0.618789 0.257807 0  0.614188 0.22987 0  0.630935 0.265614 
[...]
<PointData  Scalars="p"> 
	<DataArray  type="Float64"  Name="p"  format="ascii">
0.0004524460136397355 0.0004372621445358285 -6.376623315713871e-08 -4.331676566436903e-08 0.0005053687359450322 0.0005067607500494107 7.486834484894781e-05 6.39338593094087e-05 -0.0002832547516680903 -0.00028909050834145187 -0.0003057983638711374 -0.00032499692118195296 -0.00035889641266842497 -0.00041220478453173927 -0.0005041804603680667 -0.0006424507733409179 -0.0007550696675287443 -0.0009239890263183923 -0.0006962441227862538 -0.0003126707854225282 0.00022819930093736685 0.0008945461537765782 0.0014267977965505818 0.0017585296024776025 0.0017499679245801373 0.0013995607125252458 0.000865969756757648 0.0001974800220897253 -0.00044374628970956517 -0.0007244732384664194 -0.0009064136713776318 -0.0007801197224811009 -0.0006565255508125449 -0.0005220760797759905 -0.0004265368071497634 -0.0003727833339892554 -0.0003376713439673709 -0.00031505176724932804 -0.0002953131812536206 7.711254577781547e-05 9.259807550184404e-05 0.001142908108480215 -0.00012005616734029374 -0.00016135171148175294 -3.3487441260536485e-05 -0.00017949824167947615 -0.00016805268181939402 2.4809864943693937e-05 -4.2368941910080183e-05 0.0007443313817302607 5.7077530405561224e-05 6.041886870373722e-05 5.334237929750679e-05 0.0008086977304387916 1.8087646536159067e-05 0.0008145915159589912 4.248040943924828e-05 0.0015644701682116227 -0.0003428589421005824 -0.00035497986462354025 -0.00031174874061974916 -0.00030212287665445144 0.0015112330096702146 0.0003080177698784228 0.0007175241097904867 -0.00035000455567828264 -0.00043265582600568426 0.0015298568849862785 0.000738845805412645 -0.0003174818827748602 -0.00041575534845815303 -0.00011994123314911337 -0.0003304453299467603 -0.00013655681029589483 -0.0003420543595401523 -0.0002968733220467889 -0.0006074067557901913 -0.00021252347198564807 0.0002131257365773353 -0.0006010795175223494 -0.0006009580053254334 -0.00031391418775921474 -0.0006186011268730407 -0.00032524166899326897 -0.0002935554204355963 -0.00022648174015673723 0.0011818896799354838 -0.0005013405037624896 -0.0003067956299410241 -0.000516417669375519 -0.00032243501017814873 -0.0003005800996520688 0.0003458669516831437 -8.514030493468463e-05 -0.0003033870832657353 -6.71737434381485e-05 -0.00030641533946081795 -0.00038994080346438717 -0.000404121398585421 0.0011574225923833112 0.0010192656560391862 0.0010104269783442605 0.0005501935277962114 0.0010431229144319714 0.0010420244557865861 -0.00020464011147808866 -0.00031307143674016004 -0.0003286094670061914 -0.0003043810589304803 -0.00021297950630420317 -0.0003516324305654886 -0.00023380684988240312 -0.0003689553946286436 -0.00034641593597272894 -0.00011926973150809077 -0.000345809484348357 -0.00012829156440109018 0.001346507261496901 0.0008673202539632001 0.0002652908610474612 0.0013484612986879782 0.0008805882681714419 -0.0002794647894608776 -0.00030358014227946394 -0.0003194255531698191 -0.00016105448499443908 0.0003343015666754321 -0.00015716685630899813 -0.00030130178283081137 -0.0003191549599599384 -0.00031348883689795003 0.00019494857574440136 0.0005164392090577119 -0.0002969327340226628 -0.0003079047693015298 -0.0002053104948147885 0.00020561366080451983 0.00010859810677551073 0.00048522394031607176 0.00033510114531895747 0.0004203384860327697 0.0006398787340141477 -0.00024147980885599326 -0.00024724310913924963 0.0006195980703348103 0.0005819345114919886 0.0007052623079655221 0.00044639532307299775 0.0005322780823969606 0.00047982262370601725 -0.00016847890114331842 -0.00024265380221375802 -0.00021114541586157257 -0.00018251782573258196 0.0003717984282739774 0.00019559204770129313 -0.00020296449202597967 0.0010803337957222092 0.0009112947939972695 0.0008753662611088847 0.0008201277732008575 0.0006771279446524406 0.0005379621182496678 0.0010883117812735207 0.0009374685095144034 0.0005161593910496596 0.0008987891640814334 0.0008349902568690104 0.0009929320969843344 -0.00031280521230263824 -0.0003234044093783429 6.611055517536097e-05 0.0003212688391757096 0.0006271678541735163 -0.00024173082783155505 -0.00019155036978512837 -0.0003024770120881857 -0.00019132886286402448 -0.00028893231949522633 -0.0002402260709155954 -0.00029322642716963723 -0.00029229623376782193 -0.00030383389923963234 -0.00026141503438347017 -0.0002997221172936071 -0.000297278990129142 -0.0002976588574621175 -0.0002805150454545961 -0.0002885498446725967 -0.0002139609571976924 -0.00031844753169625 -0.0002556831454361727 -0.00032273020641267354 -4.841171596739966e-06 0.0007192558461293517 0.000364608439620488 -1.2424902281905945e-05 0.0001256039148864091 0.000693309550202216 0.0009540884173777941 -0.0003177903488224956 -0.00032381181153703134 -0.00020623687958422763 -0.00032382891391071145 -0.00020589302490173195 -0.00032558984808099333 -0.0003189360034087334 -0.00031951978927468986 -0.0003141573080140672 0.0007008807434248882 0.0006540681955332132 0.00045322637026159345 0.0007870679705771562 0.0005699625012448666 0.0005481221011575374 0.00048549173340626297 0.0004553771970341475 0.0005999925853658205 0.0003579136546101513 0.0005486086830205182 0.0008434472822915672 -6.969766101618719e-05 -0.00022754144280187275 -0.0002697002961372365 -0.00027418432814168073 -7.274380278425547e-05 0.000433708916787171 -9.932827299966338e-06 -0.0002814598145986647 -0.00021674381289835367 -0.0003089047701567908 -0.00024452790429348707 -0.0002746874791738276 -0.00030340637157323045 -0.00030366236675487246 0.00042972997497835684 -0.00026741637626035873 -0.0002853946892217044 -7.989598594874012e-05 -0.00012078931328087261 -0.00023671854295195902 -0.00010307333306005513 -0.00011498158494877083 -0.00031842439447202697 -0.0002302228690702612 -0.00016898210604471525 -0.00031700335716694614 -0.00031019811230269153 -0.000310701992887766 -0.0003043630177059927 2.393397164889066e-06 0.0003682151697352438 0.0004908202801573427 0.000529792274088859 0.0004234500530787298 -0.00029166636821285425 -0.0002912785471791723 -0.00027113405953165784 2.0309349815182414e-05 -9.885471561422312e-05 -0.00030028525550541106 -0.00025931126481658606 -0.000293058770077787 0.00010783205041120026 0.0006758736542433859 -0.00019414259800167968 -0.000310515437101137 -0.00027175013505064587 -0.00029318656402669755 -0.00019099703471300126 -0.0003016487189257848 -0.00030406849257071664 -0.0002915875118253481 -0.0002981717652378592 -0.00027252390200195934 -0.00028273478123823934 -0.00025935923721763255 -0.00028487933525192077 -0.0002694747575447158 -0.00027729374251799356 -0.0002926591304545298 -0.00023701491830373418 -0.0002564600437455696 -0.00025872609930246 0.00021632872069266972 0.0002400122051861778 0.0007021429417915176 -0.00028588312658933945 -0.0003166229522542526 -0.00028165081860658046 -0.00023693142200775324 -0.00022475653521098821 -0.0001488223709357233 -0.0002697194509098013 -0.0002692379342767245 -0.00021226671195396992 -0.000268536248826416 -0.00024681315787171903 -0.00025905777615959974 -0.00022039285509725976 -0.00023763090433355564 -0.00024168895181244724 -0.0002580706542147079 -0.0002400476539959203 -0.0002570655236513961 -0.00021973414402026026 -0.00018081045798747542 -0.00022862659431007398 -0.0002087285214680132 -0.00023891443924806154 -0.00017981504807253548 -0.0002111225511241335 -0.00024596769656236024 4.580270227976737e-05 -0.0001481937003818202 -0.0002026299532670244 -4.31516566090068e-05 -0.00019416531410418466 -0.0001931824550172454 -0.00013420303041767367 -0.00013000948457099604 -0.00017595882295134152 -0.00014405133481092168 -0.00016416547771772985 -0.00013234545309020627 -0.00015614341126630118 -0.00010496071329849525 -4.597492369564934e-06 -0.00012788419599250628 -7.118338757094676e-05 -9.749313968185777e-05 -0.00011309870636905131 2.0054393054448965e-05 -0.00013675342788058438 -9.117478504612148e-05 -0.0002789919848538809 -0.0002699935737843434 -0.0002974581639983308 -0.00020210062726368344 -0.00019693605867319148 -0.0001441592891797738 -0.00028113561172904894 -0.00023588441638532282 -0.0002185213090137314 -0.00020499190869144684 -0.00021246991977115333 -0.0001840293809991708 -0.00010234979423256904 -0.00017294178916358563 -0.00011691251326832658 -7.052082994945688e-05 -8.371070533369607e-05 -1.251766502401911e-05 -4.081462742958441e-05 -4.747287596080725e-05 -2.9778394026218942e-05 -2.2735948130045614e-05 2.3970637562003404e-05 3.82297509931143e-06 3.7566014507969335e-05 -0.00022860684325389156 -0.00014288811517935274 -0.0001172461313325983 -0.00019073534849728185 -0.00013219178508275514 -5.428709710173318e-05 -0.00013001804116934514 -0.00016118967977292407 -0.000185819787777242 -8.12809076034847e-05 -4.225445107957687e-05 1.5911485589815374e-05 -1.5432825942079396e-05 -8.873200652295162e-06 -4.375091507372602e-06 -0.00025449510531411483 -0.0002398477806185726 -0.00024036074834950203 -0.00020271906534417844 -0.0002347842942768105 -0.00015365059439700158 -0.00011464244710575436 -0.00015878859164911768 -0.0001266762378644961 2.060345008988149e-05 6.210733540003395e-05 -0.00018507251039484867 -0.00016933309618785765 -0.00014411541878725653 -0.00015231750496727891 -8.359869664344052e-06 -0.00012043542430124519 -0.00020779004117070512 -0.0001484413280176279 -0.00017010978774572148 -0.0001461683841939094 -0.0001554869713341442 -0.00010825944653860345 -0.00010617381865138953 -0.00017847608321376151 -0.00014216208583887652 -0.00017258481288112216 -7.092737847981214e-05 -8.078360076912348e-05 -0.00012761243673246783 -0.00010910996303034384 -6.292224298639261e-05 -8.258331726417266e-05 -0.00011919243908336601 -6.964079876955961e-05 -9.953610809648562e-05 -0.00011655963318065078 -9.199507397720106e-05 -9.357815071305941e-05 -8.067724974647483e-05 -4.719765845475395e-05 -3.6250684616326595e-05 -6.121193780350779e-05 -5.823082647322904e-05 -5.688501594676498e-05 -3.7106084110766834e-05 -4.333623911823206e-05 -1.743126544969809e-05 -0.000115071733468008 -9.684184530036917e-05 -9.967048127515355e-05 -8.602273588100828e-05 -3.837095806710525e-05 -3.8685695282680266e-05 -2.7177754292678337e-05 1.2041038124009188e-06 -1.2971932228891414e-05 -7.155317692023845e-05 -8.063284401160019e-05 4.095448051587743e-06 -2.1184159384028757e-05 -5.90659876546662e-05 -5.911612995941286e-05 -1.419186935182303e-06 1.430811269523934e-05 -1.2472074482578767e-05 -1.2266549982994858e-05 -7.68754641837791e-05 0.0013124319730583758 0.00020496110302954353 2.42651004959978e-05 0.00015304832126634594 0.000298968138137705 0.0001941101205707941 0.000719641718374755 -0.00025348771118062914 -0.00027047345751267284 -0.00024703725983832916 -9.548331757672792e-05 -0.00013461150303189926 -0.00030556219592450915 -0.00030346317978674676 -0.0003015244435443248 -0.0003048836257587863 -0.000304509944134143 -0.00030256354290136974 -0.0003060952083164839 -0.0003055559039936849 -0.0003081856701976964 -0.00030145229250907817 9.882526383222003e-05 -0.00017817505731460617 -7.317506580644793e-05 -9.707602411186794e-05 -8.021714384158356e-05 -5.397498519054571e-05 7.540884035459215e-06 -2.811387681144389e-05 -1.313185328594102e-05 -7.532536764693822e-06 -2.939225219977402e-05 4.1353495906737734e-05 1.5473019909061164e-05 3.2025913294468114e-05 1.9569586740209795e-05 2.9363290129183587e-05 4.819410796162167e-05 -2.7413248936276876e-05 2.802475710794921e-05 7.876351778575715e-05 5.418437538243077e-05 7.124522575854031e-05 0.0001068751199726575 0.00010719822937854278 9.139683740537045e-05 9.709283260602725e-05 9.225459318075074e-05 0.0001022746728851756 6.701398054305715e-05 0.00011607762206877077 7.716125322559283e-05 7.08723517163725e-05 8.954020542647509e-05 5.6736297735278164e-05 8.718321643220883e-05 -4.1490565810577635e-05 -8.65904705461074e-08 5.9017420853852345e-05 5.9655132719229294e-05 7.1632721434442e-05 0.0001111801403653904 3.086543240925669e-05 1.4676257546700358e-05 0.00010670422378564906 7.151025835061167e-05 0.00012359210669879745 8.286233534451987e-05 9.260442117969307e-05 0.0001204412930349504 0.00011859526210530895 0.00012180005369940308 0.00011615777595607781 0.00012211887276969842 0.00012102533698351018 0.00010636584729646773 0.000101466462645098 0.00011894222474703682 0.00011472861350916164 0.00011464170627903561 0.0001063898867304388 0.00010131381559986016 0.0001076787682268026 8.823243589928465e-05 7.83986223896796e-05 7.81751671996477e-05 0.00011790260881479922 9.16505842673332e-05 9.427909177841387e-05 8.61187569839644e-05 8.466544945921558e-05 8.76516867618908e-05 8.659897961155969e-05 0.00010037557528285624 9.42816718673318e-05 8.842836911200003e-05 8.05830310855387e-05 0.0001118219695233524 9.330164320705205e-05 7.760172970302646e-05 8.219625453737083e-05 8.116724871266945e-05 7.794120955431997e-05 7.614205367850186e-05 7.50134361069723e-05 6.99032049634025e-05 6.847917461509355e-05 9.951957486902137e-05 8.142809412419315e-05 3.376001745552313e-05 3.977107593380785e-05 6.40127285512501e-05 0.00011457176558815834 8.64567196307506e-05 0.00010256824552782723 9.465496117539774e-05 6.991125229836693e-05 4.2680640283376386e-05 0.00011236106438083839 5.913638257390372e-05 0.00010956053562351649 0.00010723127006597577 9.285787464476382e-05 9.997307910923116e-05 7.20799059280619e-05 2.059880425909783e-05 6.594126400636466e-05 0.00010559933098117972 0.00010299175717541954 0.00010845165412131761 8.044131629999703e-05 9.874333046735132e-05 9.726212444268819e-05 9.359582066438843e-05 8.432834781235658e-05 8.675926681970739e-05 9.87829403788132e-05 0.00011009531521660989 9.944295518401777e-05 0.0001072541421584568 0.00011108453172168544 3.765880521165798e-05 0.00010030824240006634 0.00010676298468770021 9.573781186441126e-05 0.0001065799081457845 0.00010537929407543623 0.0001037226194936047 0.00010042466241325111 8.175484305699e-05 9.174823396603505e-05 7.816872675958287e-05 0.00010342753062450812 9.790752896017667e-05 8.987998004249316e-05 8.522777963339559e-05 9.115481424707607e-05 8.072767343685118e-05 2.9168956678149226e-05 7.440715989314553e-05 5.249312691875281e-05 4.9494925350616855e-05 7.297120765169248e-05 6.624166535488321e-05 7.283574082376804e-05 8.265968816175192e-05 5.893074508509167e-05 5.8326658776344724e-05 6.933408835620962e-05 8.547248900356327e-05 7.247981373159362e-05 6.0374009645407453e-05 7.061761603017924e-05 8.413244327642777e-05 5.563518231259932e-05 3.153583529002261e-05 3.55432710098513e-05 4.542472168047137e-05 4.446519392373432e-05 3.5805333110375445e-05 4.728845546203476e-05 4.5712793956029324e-05 1.9835014812132043e-05 3.0022118750690316e-05 4.243405178163435e-05 2.5246074341432694e-05 1.1092242151751741e-05 2.2307141251136413e-05 1.3939996816661577e-05 4.806867760042737e-05 5.475135114779498e-05 6.39027644034433e-05 3.692937870082104e-05 5.7133041460326854e-05 2.6593189105157458e-05 8.556748044930328e-06 1.1055350861365242e-06 1.9126945413454533e-05 2.466166127332262e-05 -2.490374472899456e-06 7.129955222687881e-06 1.401836558574486e-05 4.195821640559179e-05 4.126414988173807e-05 4.810936402160201e-05 6.874455733568166e-06 7.276298700101371e-05 2.9961072392727968e-05 6.744242423970015e-06 -4.964549671475299e-06 2.9780066910854274e-05 9.436330543261923e-06 4.565734408606059e-05 -6.687939937461041e-06 1.331916378211481e-05 6.53148967480744e-05 5.63410149685374e-05 1.6726070620536334e-05 2.7434479409968136e-05 5.393283422412787e-05 6.30623996879089e-05 5.752972328499114e-05 8.67825772336155e-05 2.4299535211204503e-05 8.738763491163796e-05 3.652231630975178e-05 9.184003510650503e-05 7.297266029889045e-05 9.685516431179294e-05 4.898308017021328e-05 6.489939191381365e-05 7.827077106655149e-05 0.00010641143386456105 0.00010342859791935731 9.658289928377091e-05 0.00010220882079216078 9.619314023540835e-05 0.00010618464661301618 0.00010594469452233831 0.00010635117861991504 0.00010530444439209512 0.00010304494559507537 8.333208406815209e-05 9.155424250069071e-05 -4.504036985713025e-05 -6.243102694763054e-05 -6.966500507832981e-05 -4.184808079949587e-05 -4.084627701982217e-05 -4.0892833690336656e-05 -1.685849054974657e-05 -2.3548180492609955e-05 -1.1370350634147957e-05 8.265352749140312e-06 -9.568026012512929e-05 -9.520734116030207e-05 4.545903065107945e-05 0.00026407716775524734 -8.812586251785542e-05 3.602957188028271e-05 8.370572133358122e-05 7.194374755996788e-05 0.00012330020309881846 0.00011580592783558392 -1.2006839617651489e-05 5.602889292307509e-05 -6.728621232536808e-05 5.304544581099178e-05 7.477179014376512e-05 9.986043639313678e-05 0.00010085506522402251 0.00010599463332203546 8.729171103096105e-05 9.417062874428023e-05 6.3053118278654e-05 5.3526470349056465e-05 3.4303415005590934e-05 1.4940947433725216e-05 -1.5685422090329963e-05 3.194880273898947e-05 6.183456063725199e-05 -6.697772108687723e-05 0.00013407761211641514 8.762447351493691e-05 5.704935362088047e-05 0.00011944384517380718 -9.64067498376788e-06 0.0005694220918201975 0.0004630674303827264 -5.073576534868898e-05 5.772156150868697e-05 6.302226857004242e-05 9.667780017210254e-05 -0.00010637802862225626 -0.00010603641100839323 -6.885460068937986e-05 -8.397129828805806e-05 -2.7470552245187395e-05 6.518433988290724e-05 -6.721368889866779e-05 0.00023825770066851883 0.0004403861302099792 0.00042446963135756423 0.0004406163480954985 -8.192436453686946e-05 5.4735134874310536e-05 0.00041566816215781165 0.0004247185940126681 -4.3904672086805836e-06 0.0006598917082821249 -4.579790597166772e-05 -7.995663791883706e-05 2.1211037888291216e-05 -6.1935509620211784e-06 0.00031178239661011446 0.0004844233323217509 -9.262964745557015e-05 4.591609820641656e-05 1.8014384620204393e-05 0.00037829356313242093 4.0399295358115384e-05 0.0005886452152112989 0.00013036037704422916 0.00011271951848554714 5.604592507694639e-05 0.0004662297470212817 6.219468664636465e-06 1.262873507913268e-06 3.773352118421512e-05 2.1221266793183302e-05 1.5471350768031806e-05 -9.186395440027846e-06 7.747796009110871e-05 8.269628945571937e-05 9.32312112395812e-05 9.214605310647532e-05 6.493103263224695e-05 7.842558349808261e-05 0.0004286056580714476 -6.90474554720754e-05 1.2809148670283169e-05 0.000400468721832316 0.0005775774749272299 9.354001448691835e-05 9.405004812428535e-05 -7.94055139785761e-05 -6.368920970259876e-05 0.0007609577346243325 0.0004620079126603394 9.283066668635637e-05 0.0006629507428382992 9.26677336854098e-05 9.371262088168016e-05 0.0004877462066862583 9.415034631820564e-05 8.317656985753828e-05 9.361076456797792e-05 0.000448499116304437 9.876365839734956e-05 0.00045361600168205977 0.00044845740620519495 7.250870778267747e-05 8.581142622142416e-05 8.58525477794329e-05 0.00010081156752775279 9.076231142338114e-05 8.345946612016672e-05 8.986539086533141e-05 8.806384039459619e-05 8.353029452538094e-05 9.104518689022257e-05 9.083354584527667e-05 8.61971119476058e-05 8.108166168802076e-05 8.55467527197281e-05 8.771128402597295e-05 7.923229019462844e-05 8.7561317237025e-05 8.29428079239974e-05 8.358039716138407e-05 7.859661310215202e-05 7.943903487464582e-05 -2.8065611591694497e-05 6.189014519346382e-05 5.573496231394289e-05 5.845580093490202e-05 5.857102657202979e-05 5.986775066618239e-05 6.203368583302285e-05 5.648277537587322e-05 6.875406119845384e-05 5.9220888047564364e-05 0.00010516793932012882 6.019833564933623e-05 6.0476015969629226e-05 0.0002869046972879172 0.0004130293847167728 0.0003768539077345282 0.0004351650904529995 -3.344114051496357e-05 -6.281432225055022e-05 1.4830577096189797e-06 0.00044360738401970004 0.00029603397928594863 4.1628762900499455e-05 1.3346594064011476e-05 0.0004083413609122341 -7.655995934693002e-05 0.0007603567957595568 0.0007279734845741045 8.935212028805019e-05 8.536023413346658e-05 5.718949714908091e-05 7.16127408804303e-05 9.076386671146052e-05 8.102166372480488e-05 7.942342349569686e-05 9.207602209171467e-05 9.086343190892936e-05 9.06244858327383e-05 9.267420534806895e-05 9.293473118695757e-05 8.84936370984615e-05 7.428214150087446e-05 9.119305336967609e-05 9.377971648338011e-05 9.190739683185022e-05 8.30130835553224e-05 9.574309553480826e-05 8.839458167258343e-05 5.654993060672728e-05 9.542133218896064e-05 8.60088062971