<?xml version="1.0"?>
<VTKFile type="UnstructuredGrid"  version="0.1"  >
<UnstructuredGrid>
<Piece  NumberOfPoints="1289" NumberOfCells="2413">
<Points>
<DataArray  type="Float64"  NumberOfComponents="3"  format="ascii">0 0 0  0 0.41 0  2.2 0.41 0  2.2 0 0  0.1 0.1 0  0.1 0.3 0  0.8 0.3 0  0.8 0.1 0  0.25 0.2 0  0.248976 0.210065 0  0.245948 0.219718 0  0.241038 0.228563 0  0.234448 0.23624 0  0.226448 0.242432 0  0.217365 0.246888 0  0.207571 0.249423 0  0.197468 0.249936 0  0.187467 0.248404 0  0.17798 0.24489 0  0.169395 0.239539 0  0.162062 0.232569 0  0.156283 0.224265 0  0.152293 0.214968 0  0.150257 0.205058 0  0.150257 0.194942 0  0.152293 0.185032 0  0.156283 0.175735 0  0.162062 0.167431 0  0.169395 0.160461 0  0.17798 0.15511 0  0.187467 0.151596 0  0.197468 0.150064 0  0.207571 0.150577 0  0.217365 0.153112 0  0.226448 0.157568 0  0.234448 0.16376 0  0.241038 0.171437 0  0.245948 0.180282 0  0.248976 0.189935 0  1.1 0 0  1.1 0.41 0  0.1 0.2 0  0.45 0.1 0  0.45 0.3 0  0.55 0 0  0.275 0.1 0  0.275 0.3 0  0.275 0 0  0.55 0.41 0  0 0.205 0  0.825 0 0  0.825 0.41 0  0.275 0.41 0  0.1 0.15 0  0.1875 0.1 0  0.1 0.25 0  0.1875 0.3 0  0.132322 0.2 0  0.241426 0.253518 0  0.241426 0.146482 0  0.264574 0.17974 0  0.264574 0.22026 0  0.138434 0.187348 0  0.153372 0.150948 0  0.148413 0.164094 0  0.176495 0.136535 0  0.22768 0.143571 0  0.138434 0.212652 0  0.148413 0.235906 0  0.176495 0.263465 0  0.22768 0.256429 0  0.23125 0.3 0  0.24769 0.24094 0  0.23125 0.1 0  0.24769 0.15906 0  0.26253 0.193641 0  0.190482 0.137872 0  0.166753 0.146661 0  0.157737 0.244461 0  0.190482 0.262128 0  0.203107 0.261264 0  0.253635 0.22977 0  0.203107 0.138736 0  0.253635 0.17023 0  0.261028 0.206206 0  0.167707 0.251809 0  0.143629 0.224191 0  0.215302 0.2591 0  0.270465 0.245894 0  0.215302 0.1409 0  0.270465 0.154106 0  0.284052 0.202587 0  0.14375 0.3 0  0.209375 0.3 0  0.225966 0.278501 0  0.209375 0.1 0  0.225966 0.121499 0  0.211613 0.273759 0  0.211613 0.126241 0  0.143629 0.175809 0  0.1 0.175 0  0.133484 0.164832 0  0.144491 0.249539 0  0.1 0.225 0  0.133484 0.235168 0  0.3625 0.3 0  0.25691 0.253381 0  0.25691 0.146619 0  0.277205 0.188698 0  0.184724 0.275712 0  0.237372 0.268285 0  0.184724 0.124288 0  0.237372 0.131715 0  0.197578 0.273149 0  0.193656 0.286994 0  0.197578 0.126851 0  0.193656 0.113006 0  0.122953 0.187671 0  0.118362 0.153758 0  0.155372 0.258107 0  0.122953 0.212329 0  0.118362 0.246242 0  0.276394 0.27264 0  0.276394 0.12736 0  0.280965 0.170013 0  0.253125 0.3 0  0.14375 0.1 0  0.253125 0.1 0  0.269489 0.26014 0  0.269489 0.13986 0  0.303639 0.184297 0  0.165625 0.3 0  0.134742 0.273113 0  0.257831 0.274737 0  0.255279 0.128499 0  0.3625 0.1 0  0.165625 0.1 0  0.162031 0.132368 0  0.134955 0.126405 0  0.149334 0.125568 0  0.142936 0.139597 0  0.12695 0.140259 0  0.242514 0.285501 0  0.242514 0.114499 0  0.1 0.125 0  0.117483 0.12555 0  0.11154 0.139776 0  0.121875 0.1 0  0.109143 0.1125 0  0.126805 0.114 0  0.220313 0.29129 0  0.351562 0.287369 0  0.207222 0.2866 0  0.220312 0.10871 0  0.1375 0 0  0.20625 0 0  0.207222 0.1134 0  0.11722 0.17118 0  0.1 0.1625 0  0.0778409 0.16875 0  0.0862762 0.15625 0  0 0.15375 0  0 0.1025 0  0.11722 0.22882 0  0.1 0.2375 0  0 0.3075 0  0.0862762 0.23125 0  0.0598995 0.222547 0  0.0860223 0.2125 0  0.289584 0.181469 0  0.300267 0.16446 0  0.163832 0.269071 0  0.149597 0.273325 0  0.1 0.275 0  0.268498 0.285953 0  0.31875 0.3 0  0.294154 0.254672 0  0.296875 0.3 0  0.293558 0.271845 0  0.285095 0.286799 0  0.324298 0.264316 0  0.307866 0.263745 0  0.317093 0.234901 0  0.315485 0.281219 0  0.316547 0.250625 0  0.344693 0.243731 0  0.331592 0.251147 0  0.35129 0.270663 0  0.338689 0.263683 0  0.340625 0.3 0  0.249849 0.264383 0  0.265097 0.11422 0  0.284688 0.156136 0  0.242188 0.324017 0  0.0856613 0.2625 0  0.132812 0.0612217 0  0.264062 0.0612217 0  0.198437 0.07598340000000001 0  0.0860223 0.1375 0  0.0794526 0.191089 0  0.285228 0.140397 0  0.298655 0.148737 0  0.31875 0.1 0  0.327335 0.15374 0  0.296875 0.1 0  0.312289 0.155283 0  0.313348 0.135607 0  0.321802 0.173916 0  0.298433 0.134116 0  0.112124 0.2625 0  0.127526 0.259083 0  0.121875 0.3 0  0.0682687 0.241503 0  0.1 0.2875 0  0.117762 0.28125 0  0.107813 0.3 0  0.103906 0.313849 0  0.0778409 0.28125 0  0.1375 0.41 0  0.0862762 0.29375 0  0.08886860000000001 0.24375 0  0.307812 0.338778 0  0.307812 0.292227 0  0.33216 0.279164 0  0.387888 0.266414 0  0.264063 0.31948 0  0.110937 0.07598340000000001 0  0.242188 0.07598340000000001 0  0.319914 0.11839 0  0.340625 0.1 0  0.334448 0.133793 0  0.329687 0.108539 0  0.346259 0.118491 0  0.360334 0.173636 0  0.327539 0.205033 0  0.132812 0.288712 0  0.362436 0.278836 0  0.368105 0.259418 0  0.4125 0.41 0  0.329687 0.324017 0  0.329687 0.292306 0  0.285938 0.318952 0  0.417187 0.338778 0  0.324481 0.14148 0  0.351562 0.106771 0  0.40625 0.1 0  0.341028 0.168342 0  0.319221 0.190479 0  0.335292 0.184501 0  0.305563 0.20794 0  0.220313 0.31948 0  0.132812 0.332772 0  0.0865876 0.311259 0  0.0598995 0.302453 0  0.0906541 0.343255 0  0.353543 0.255837 0  0.36574 0.237633 0  0.405007 0.254279 0  0.275795 0.352123 0  0.4125 0 0  0.35493 0.137394 0  0.366563 0.120618 0  0.35917 0.205246 0  0.198438 0.318952 0  0.0626109 0.263892 0  0.40625 0.3 0  0.354809 0.155936 0  0.386512 0.146872 0  0.373101 0.159939 0  0.384375 0.1 0  0.343394 0.19929 0  0.350682 0.185683 0  0.368101 0.189748 0  0.344016 0.221511 0  0.391108 0.213329 0  0.376279 0.204783 0  0.398843 0.182768 0  0.375804 0.222746 0  0.390665 0.196958 0  0.394004 0.23518 0  0.359883 0.222828 0  0.419908 0.204359 0  0.404243 0.204783 0  0.412615 0.224526 0  0.20625 0.41 0  0.165625 0.325257 0  0.0347982 0.244954 0  0.379558 0.247154 0  0.34165 0.147603 0  0.372264 0.136992 0  0.388988 0.121989 0  0.373437 0.108554 0  0.351562 0.31948 0  0.391367 0.16527 0  0.399572 0.223324 0  0.452011 0.227371 0  0.40877 0.239392 0  0.431491 0.237337 0  0.421224 0.250459 0  0.449619 0.262098 0  0.418865 0.276779 0  0.437063 0.252274 0  0.415673 0.263227 0  0.430988 0.266772 0  0.402767 0.273419 0  0.452967 0.244883 0  0.428125 0.3 0  0.408502 0.286186 0  0.384375 0.3 0  0.392267 0.285807 0  0.465927 0.219339 0  0.43489 0.283846 0  0.376424 0.286289 0  0.625 0.3 0  0.473533 0.205186 0  0.461713 0.255517 0  0.5375 0.3 0  0.465725 0.235405 0  0.44631 0.201425 0  0.471875 0.3 0  0.494307 0.227729 0  0.459448 0.206736 0  0.462294 0.180792 0  0.478933 0.227536 0  0.486793 0.21381 0  0.486322 0.251373 0  0.50065 0.215318 0  0.54005 0.175389 0  0.474633 0.189893 0  0.512916 0.208697 0  0.49531 0.199967 0  0.475889 0.175275 0  0.625 0.1 0  0.459311 0.153933 0  0.513645 0.242704 0  0.392892 0.248539 0  0.374815 0.271913 0  0.365974 0.14871 0  0.395312 0.109184 0  0.417061 0.123981 0  0.483196 0.277003 0  0.381967 0.179632 0  0.429898 0.219374 0  0.433473 0.206165 0  0.43149 0.181038 0  0.444208 0.215487 0  0.472985 0.247309 0  0.49375 0.3 0  0.475579 0.262714 0  0.49916 0.274293 0  0.501175 0.184809 0  0.514164 0.225681 0  0.543648 0.214977 0  0.5341630000000001 0.23481 0  0.527396 0.216171 0  0.5375 0.1 0  0.534548 0.202315 0  0.561545 0.192513 0  0.5494289999999999 0.201221 0  0.570923 0.218346 0  0.412582 0.149833 0  0.489327 0.264745 0  0.502439 0.254775 0  0.462391 0.271166 0  0.496775 0.241732 0  0.5294410000000001 0.268606 0  0.482812 0.291099 0  0.46879 0.285038 0  0.452663 0.284065 0  0.51789 0.257882 0  0.53408 0.252026 0  0.560142 0.243543 0  0.545708 0.243474 0  0.547532 0.229019 0  0.55282 0.265323 0  0.398971 0.153424 0  0.400349 0.135684 0  0.410135 0.168145 0  0.428823 0.161323 0  0.415266 0.183779 0  0.329687 0.0810483 0  0.395312 0.0612217 0  0.373437 0.318952 0  0.439062 0.324017 0  0.561816 0.229354 0  0.585029 0.239287 0  0.431827 0.139854 0  0.446796 0.168929 0  0.351562 0.07598340000000001 0  0.395313 0.318944 0  0.54337 0.150762 0  0.460937 0.31948 0  0.418412 0.137529 0  0.428125 0.1 0  0.442783 0.152332 0  0.450742 0.134294 0  0.373437 0.0805201 0  0.384383 0.342558 0  0.482812 0.318952 0  0.429239 0.127457 0  0.444274 0.117405 0  0.426548 0.113815 0  0.49375 0.1 0  0.488954 0.113984 0  0.457973 0.121842 0  0.471621 0.137346 0  0.515625 0.325257 0  0.48125 0.41 0  0.417187 0.07598340000000001 0  0.496363 0.126778 0  0.479043 0.155715 0  0.439062 0.0805201 0  0.481795 0.126919 0  0.471875 0.1 0  0.489227 0.142159 0  0.515625 0.1 0  0.520062 0.147117 0  0.501244 0.161791 0  0.505431 0.112984 0  0.505344 0.14029 0  0.526563 0.119081 0  0.5181750000000001 0.131908 0  0.539868 0.136937 0  0.460937 0.108383 0  0.474242 0.114415 0  0.460937 0.0810483 0  0.487841 0.167168 0  0.526563 0.0612217 0  0.526563 0.106406 0  0.537619 0.112743 0  0.58125 0.1 0  0.559375 0.1 0  0.482812 0.08105569999999999 0  0.471883 0.0587655 0  0.570312 0.129396 0  0.548437 0.07598340000000001 0  0.504687 0.08105569999999999 0  0.49375 0.0470127 0  0.570312 0.112663 0  0.592798 0.12103 0  0.553986 0.12103 0  0.570312 0.0805201 0  0.48125 0 0  0.114787 0.2 0  0.160769 0.284765 0  0.175816 0.288361 0  0.162602 0.116048 0  0.154687 0.07598340000000001 0  0.176562 0.0805201 0  0.0598995 0.147547 0  0.307812 0.109924 0  0.291279 0.117157 0  0.278491 0.112989 0  0.285937 0.07598340000000001 0  0.307812 0.0805201 0  0.296928 0.196743 0  0.318141 0.218507 0  0.330208 0.227509 0  0.301397 0.225668 0  0.302706 0.241401 0  0.292574 0.21424 0  0.282762 0.230935 0  0.284351 0.244775 0  0.269553 0.23261 0  0.278572 0.217242 0  0.226924 0.342606 0  0.446928 0.185396 0  0.515625 0.3 0  0.504687 0.288879 0  0.515256 0.276534 0  0.529479 0.285328 0  0.58125 0.3 0  0.541969 0.272936 0  0.559375 0.3 0  0.556796 0.282529 0  0.543473 0.287206 0  0.581429 0.267774 0  0.566728 0.271171 0  0.570869 0.255585 0  0.577404 0.283865 0  0.603125 0.3 0  0.597531 0.28035 0  0.570312 0.338778 0  0.592188 0.292492 0  0.603513 0.256094 0  0.614063 0.286265 0  0.610329 0.27064 0  0.632708 0.251285 0  0.657223 0.261594 0  0.618789 0.257807 0  0.614188 0.22987 0  0.630935 0.265614 
[...]
<PointData  Scalars="p"> 
	<DataArray  type="Float64"  Name="p"  format="ascii">
0.00045478739794042747 0.0004347941660794076 -6.238356505693106e-08 -3.789022024427348e-08 0.000507757913714184 0.000504289355811032 7.770915494552788e-05 6.187215104302158e-05 -0.0002831196228723351 -0.00029184553188325114 -0.00031141160571031257 -0.00033266250176628516 -0.0003671701730065217 -0.000420726055222118 -0.0005132023429757431 -0.0006516758666974649 -0.0007640570636187278 -0.0009325697622440323 -0.0007028348469431264 -0.0003177061383790978 0.000224477511291584 0.0008920609695145045 0.0014253099203078042 0.001758014979765319 0.001750425459801607 0.001400999476126183 0.0008683915920712018 0.0002011498879371327 -0.000438470600350997 -0.000717831544639315 -0.0008978939046603018 -0.0007709953359294158 -0.000647178122448731 -0.0005128934280117924 -0.00041787773165561753 -0.00036435782752480144 -0.00032980288578155533 -0.00030922236419058356 -0.0002922636075826174 9.012484341938111e-05 7.816301918902338e-05 0.0011428906415978904 -0.00014643338508302866 -0.00013425420335163552 -4.430522879503413e-05 -0.00017322710040420958 -0.00017478508267685462 2.8003779235861542e-05 -3.6101308231116756e-05 0.000744187333931663 5.0206612178720964e-05 6.561541333073519e-05 5.004537212581059e-05 0.00081033468062334 2.2970318440863216e-05 0.0008128844754745893 3.761068995105167e-05 0.001564443926931374 -0.0003511128635710944 -0.0003465968439485781 -0.0003065149771310726 -0.0003070055704441295 0.0015120945690601205 0.0003116066497488125 0.0007202213440567077 -0.00034406394292145324 -0.00042384666977941793 0.0015289410356881493 0.0007360923124486977 -0.0003234005564590248 -0.0004244093991854102 -0.00012604155773265178 -0.0003383206171472196 -0.0001304824629994017 -0.00033408584484029963 -0.0002950310462349664 -0.0005998082051910407 -0.00020752126512345176 0.00020925343637190347 -0.0006086593631777579 -0.0006096772977285825 -0.0003206211578201555 -0.0006097988277523554 -0.00031830492784776427 -0.00029501615128646995 -0.00023158792801996472 0.0011800325427188984 -0.0005101840451657784 -0.0003165685227923513 -0.0005074440605306388 -0.00031235200036325967 -0.00030110702061097566 0.00034243998166462263 -9.082961292716487e-05 -0.00031093743542379024 -6.163448808157036e-05 -0.0002988973294011653 -0.00039749258383765974 -0.00039656310667622195 0.0011592243460635527 0.001020168748731843 0.0010124022030737487 0.0005470874152888969 0.00104215990561989 0.0010399952268371944 -0.00019517524429532126 -0.0003222687174443406 -0.0003192054902958103 -0.00030118958138321516 -0.00021878811924873825 -0.00036027549684832503 -0.0002280397427443015 -0.00036018185749567353 -0.00035313742139468754 -0.0001249446008470867 -0.0003390927179608294 -0.00012261968434854894 0.001347166133548901 0.0008692158168368588 0.00026136617600336777 0.0013477493986807014 0.0008786288090770935 -0.000290324404989723 -0.0002927701548314519 -0.0003113427596423179 -0.00016767486278780746 0.00033767777221835804 -0.00015066523864062933 -0.0003122027464612425 -0.0003081946968469277 -0.00030849677683457237 0.0001908109988849576 0.000513408214151851 -0.0003063502507509747 -0.000298617331748676 -0.00021460446125464133 0.00020966604895392396 0.00011294512267277351 0.0004882270054752165 0.000338697096546522 0.00042359046295780794 0.0006424143953629394 -0.0002489516097465121 -0.00023989975412713863 0.0006217190033110281 0.000584411763743679 0.0007073726625598111 0.00044920767734894573 0.000534728666589109 0.0004826559238071922 -0.00017483223475099936 -0.00023737096143359188 -0.00021752039477240519 -0.00017615512399593553 0.0003750702633533461 0.00019960940942667738 -0.0001966674670776103 0.0010816191645463258 0.0009125936580802598 0.000876237109834011 0.0008214099216048698 0.0006781727294330989 0.0005398509419196772 0.0010869665940796537 0.0009361158920988143 0.0005141056479792336 0.0008977817358994653 0.0008343785052009625 0.0009924933104534061 -0.00030731585425613193 -0.0003131912944388216 6.155559627840667e-05 0.00031757685451981973 0.000624988300569531 -0.0002501522933613528 -0.0001942994367819518 -0.0003153057614299336 -0.00019707801094513081 -0.00030052485615893795 -0.00024899190423330954 -0.0003023256785116732 -0.00030432425144159294 -0.00031301677344186974 -0.00026871915170529606 -0.00031106914435396376 -0.00030120091142021865 -0.00030605381813002415 -0.0002777048491800766 -0.00029287230852480874 -0.0002120618388502321 -0.00032747328072085124 -0.0002473552570677992 -0.0003116254506123719 -9.921598326648823e-06 0.0007175132765504824 0.0003677294893142953 -8.279266541855976e-06 0.00013006934729365343 0.0006950068043243564 0.0009543167134058364 -0.00030540769551073066 -0.00031117453546895043 -0.00020371152936513864 -0.00031434336630076036 -0.00020003102995554378 -0.00031399557306539567 -0.0003075644154399508 -0.00031221869017938544 -0.00030191625469900543 0.0006986424277841461 0.0006514613856090289 0.0004503665652263789 0.0007859380490826308 0.0005676440240662587 0.0005454840621503893 0.00048288335827871565 0.00045275657486341546 0.0005980049979620532 0.000354623549089722 0.0005464032928791646 0.0008420707231033547 -7.193699546596772e-05 -0.0002336882877038337 -0.00027299626861753545 -0.00024898011382837564 -7.793733095369873e-05 0.000436385127746459 -5.058105914749375e-06 -0.0002758335491869748 -0.000218742722176304 -0.0003033971481784917 -0.00024317639560175744 -0.0002776747409191815 -0.0003051379296783541 -0.0003049186283854841 0.00042662813111499264 -0.0002568282036035012 -0.00027478841463070454 -7.37257818995223e-05 -0.00012059189949302329 -0.00023817742367635665 -0.00010774040911574413 -0.0001037748165543279 -0.00030858482296945163 -0.00023593052213596622 -0.00019107755405967032 -0.00031211391137285315 -0.0003071408704535397 -0.0003072784927799422 -0.000306517466596612 -2.768431266302905e-06 0.00036509432189216196 0.0004884450200790723 0.0005277042660389044 0.0004208422539234359 -0.00029042112639456416 -0.00028579071981282595 -0.00023631706148687323 1.672202680200575e-05 -0.00010642212535074907 -0.0003036335942183378 -0.00027162391688959216 -0.0002931865475119832 0.00010322999126042509 0.0006743248310766352 -0.0001706357693601519 -0.00031088379436633895 -0.000294161063849529 -0.0003034532270413922 -0.00020746188864702599 -0.00030143080676228636 -0.00030322018806138064 -0.0002938221499048248 -0.00030077851480657104 -0.00026450127255418196 -0.0002815787234076392 -0.00027341131194766224 -0.000278424781728954 -0.0002724008249619469 -0.0002564548508420786 -0.00029139294406316636 -0.00023223048268579768 -0.00025283780169551857 -0.00023447291046970077 0.00021235306810412212 0.00023615690761043817 0.000701093581767808 -0.0002701018925354865 -0.00031178050714481746 -0.0002962205170765747 -0.000262096972320827 -0.00023939672223411684 -0.0001449306865678567 -0.0002898460927593251 -0.000252021087476825 -0.00017375316674157063 -0.00023641952880122837 -0.0002045787561518651 -0.0002158651345119554 -0.00017200728456973676 -0.00019881302516781062 -0.00019271833805016128 -0.00021676730532477879 -0.00019418428062755277 -0.0002235275167984184 -0.0001706353182809234 -0.00015400564138366376 -0.00019796992775730375 -0.00019191804749102182 -0.00021338770756812822 -0.00015121136834551612 -0.00017266052136220356 -0.00022893781974446683 2.2060094736574724e-05 -0.0001400170151816248 -0.0001556174897038951 -4.5959323177838086e-05 -0.00015123625410003972 -0.00019190399610062358 -0.00011218255544892912 -0.00010313228537136699 -0.00016560434379719256 -0.00017388339549672283 -0.0001291403160532096 -0.0001142157700590416 -0.00012019454769111781 -8.888156115046792e-05 -3.405747930315776e-06 -0.00014312403388648572 -6.4937147412931e-05 -9.788289518395461e-05 -0.00014595824754663108 3.917151029790766e-05 -0.0001851028891896487 -7.747191745572396e-05 -0.00025362963868891714 -0.0002532662669996688 -0.00030537424627993955 -0.00022549267814729785 -0.00023445101578528938 -0.00011702518849497156 -0.0002903997667481062 -0.00021087903792022658 -0.00021066031133488275 -0.00023161915035291425 -0.00018934531363044326 -0.00014034285836980813 -8.769673903926992e-05 -0.0001341253664706154 -9.896231351352876e-05 -8.655264209198465e-05 -6.979743442329788e-05 -1.6331440473094122e-05 -4.291784739825441e-05 -4.314029749773386e-05 -3.2290377434316214e-05 -2.336559569947942e-05 2.662316025052877e-05 2.2985855730669897e-06 2.036881288188917e-05 -0.00026730360361953384 -0.00011451027285360522 -9.645682363369156e-05 -0.0001495660448712321 -0.00010289565827388604 -5.95894689536295e-05 -0.00010814390066290146 -0.0001302639320742904 -0.00015005009167477068 -7.48510893365629e-05 -4.983229844734691e-05 -1.0253563417761203e-05 -3.07526137254194e-05 -1.9926543812027407e-05 -2.7998202448728915e-05 -0.00028387400350234906 -0.00027346573644749074 -0.00027002801983871705 -0.00024519586133491824 -0.00025328289944445784 -0.0001538630158047882 -0.00012354037323818648 -0.00014959621891043372 -0.00011067915712284905 3.515203081728325e-07 2.4874905214659492e-05 -0.00023235933145945132 -0.00021024440485266797 -0.00014793374717670082 -0.00013859167060590563 2.3095893306348947e-06 -0.00010215799203933186 -0.00024930292781477907 -0.00017550329008507792 -0.00021864752739819934 -0.00019180236113735337 -0.00016406401558929606 -0.00010159407718313154 -9.020489125918251e-05 -0.00022071847733988798 -0.00017881223084318597 -0.00020766389173468183 -8.836875763863158e-05 -0.00010348021442637686 -0.00016505223739006188 -0.00014941993085276854 -5.447951873012934e-05 -7.130131557131535e-05 -0.0001332481673220361 -9.096303480575224e-05 -0.00013938432833532274 -0.00013610371468857947 -0.00012216513642322632 -0.00011684205005724858 -0.00011224194678705266 -5.641130759733109e-05 -4.4331820246195496e-05 -8.732731168795293e-05 -7.152653221943692e-05 -7.570605873659776e-05 -3.9391864652900524e-05 -5.077093807426225e-05 -8.091395712873238e-06 -0.00014496166801521938 -0.00012487472886270814 -0.00011987151079628567 -0.00011881809689414684 -5.134021865738163e-05 -4.335501688181148e-05 -2.4397027247416773e-05 1.2152121444823089e-05 -6.867608840755634e-06 -8.795852313476535e-05 -9.656687302115255e-05 2.8512275583544124e-05 -2.78559451109281e-05 -7.392423128161244e-05 -7.339531380944445e-05 1.3993632606462241e-05 4.059569073555554e-05 1.1101817638561455e-06 -1.211673891213303e-05 -9.078707938771644e-05 0.0013124011646283122 0.00020085904208835955 1.9426535128419085e-05 0.00015723483501874777 0.00030252987364286986 0.0001982277134987307 0.0007208976728805278 -0.0002472905262604762 -0.00026139534732984516 -0.00023866456126914027 -9.172158373695194e-05 -0.00013184273619485032 -0.00030435473534930587 -0.00030840409459450706 -0.00030792261808780335 -0.00031228563745938366 -0.0003155650833434487 -0.0003065289166780128 -0.0003141848732786238 -0.00031655363500313424 -0.000315876864707642 -0.0003058800688012538 9.43911849938105e-05 -0.0002009286739143464 -6.7861559443957e-05 -8.548964542212711e-05 -7.563023491584182e-05 -5.732312069208855e-05 -8.646582708072254e-06 -4.25885588627607e-05 -2.499190398718511e-05 -2.617664946938667e-05 -4.0381270228115036e-05 5.986000843144027e-06 -1.1982284621279385e-05 -1.905443885543794e-06 -5.914702646727715e-06 7.701222382362504e-06 1.6551338117738514e-05 -2.5652943748085673e-05 3.939519858985237e-06 3.6470871918617745e-05 2.4777793437457134e-05 3.3690078937334646e-05 6.696853570084265e-05 7.681594552279845e-05 5.049882533955666e-05 6.193304089227113e-05 5.5208080975900814e-05 6.13302090586087e-05 4.30183180690574e-05 8.709098383515056e-05 5.872672788965803e-05 4.05155944074802e-05 5.79600722179349e-05 3.224631722133114e-05 6.158183066187593e-05 -3.8935151928829745e-05 -9.153893267507887e-06 2.131991353462287e-05 1.9704691533198472e-05 4.676937058222351e-05 9.593688224336797e-05 9.513795153919829e-06 3.072981711535388e-07 8.329222776663653e-05 4.973631410302456e-05 0.0001012941665632558 6.066071444548417e-05 7.665993530916193e-05 9.845342778641103e-05 9.065371849924517e-05 0.00011286913177715189 8.071615379714423e-05 9.304322816613823e-05 0.0001067467041622417 0.00010567611917964349 0.0001021411144718897 0.00010182433115417303 0.00010560404611060992 0.00011092659655970641 0.00011112095859781787 9.349166350716284e-05 0.00010609871904499946 7.623998928429894e-05 6.910048624473514e-05 6.440095367189107e-05 0.00011473056022977191 9.129741066029162e-05 8.919951167621566e-05 7.869152428398458e-05 8.0733584557107e-05 9.752273741325983e-05 0.00010478357307813866 0.00010234702413758684 0.00010411137544786001 9.242515243527101e-05 9.297048414395438e-05 0.00011498764789149626 0.00010877301262022015 7.60940462023213e-05 8.22775170217551e-05 8.709807362530962e-05 8.571958049279318e-05 8.949683944165414e-05 8.434656415430893e-05 8.305177829860357e-05 7.357311898364284e-05 8.127686751777291e-05 6.30912935483839e-05 1.4002178228045e-05 1.5259773512603417e-05 4.2764053262554366e-05 0.00011471703368741578 0.00010169578842292839 0.00011328475189950885 0.00010904718103826747 6.397202261010182e-05 2.057381238582246e-05 9.61099559969568e-05 3.49411574431677e-05 0.00011533731625615075 0.0001134773942065151 0.00010915715712468768 0.00011263300582250947 5.924150174511039e-05 2.8395956592725997e-06 4.420830138905965e-05 0.00010309048103208781 0.00010888898632233912 0.00011030503397851997 9.911385312590381e-05 0.00010643470923311286 0.00010134054392982993 0.00010553550203784153 0.00010244698472817976 0.00010609789246950566 0.00011077783174988078 0.00011244475288949098 0.00010047795458283877 0.00011147648318850764 0.00011312500609553354 5.8060497943413285e-05 8.616103583201089e-05 0.00010674694135183966 0.0001105674165307063 0.00010793538867423454 0.000111945765554607 0.00010995920190776939 0.00010981624417695656 0.00010766566751382813 0.00010940713463814295 9.991443542438752e-05 0.00010664873055837856 0.00010452261439501524 0.00010400404818963788 9.231138107715051e-05 9.971801964252733e-05 9.443203292697452e-05 5.082144754227625e-05 8.622197034927362e-05 7.395737896054183e-05 6.10532233981765e-05 9.175752220690979e-05 9.10655631075318e-05 0.00010091855052745103 0.00010622557601359596 9.606836478284551e-05 9.237347185839442e-05 0.00010245926911781125 9.793561024201667e-05 0.00010140409321306472 8.46955844604091e-05 9.443969198441462e-05 7.654851143822467e-05 9.095438106429536e-05 6.632723371615804e-05 7.264870028373934e-05 8.026022928333778e-05 6.144943850573196e-05 7.384231979917948e-05 8.633391185901866e-05 8.090795539121813e-05 5.3396458392227755e-05 5.8466677782704004e-05 6.893820289768156e-05 5.832226632374193e-05 2.7334976473433856e-05 4.928252204695631e-05 4.301201729594115e-05 7.957297877596314e-05 8.145839869525516e-05 8.101160800995697e-05 6.0444218331725304e-05 7.307689927967554e-05 4.971353924300147e-05 2.7168856102954174e-05 7.683599173856116e-06 4.084099029271717e-05 4.795839245755038e-05 1.7550365849494355e-05 2.5229095191736338e-05 2.553824087689614e-05 6.434339841916804e-05 6.381189483041994e-05 6.760640819466237e-05 2.8130921486984804e-05 7.963536454347667e-05 5.441330648775289e-05 1.6518476547305266e-05 -4.3331241352467916e-06 4.296137800701384e-05 2.8611975779794118e-05 6.292206457540976e-05 -5.343239529789832e-07 3.9361549266138965e-05 7.236385021276789e-05 6.996118382373725e-05 3.988250487195739e-05 4.273012384186395e-05 6.569028385277939e-05 6.909139592159449e-05 6.247958285481737e-05 8.174736305315061e-05 4.9148548143854496e-05 7.76018558200797e-05 5.123693937717138e-05 8.237363649698596e-05 6.991382060058257e-05 8.273537466070616e-05 5.3457483964567565e-05 6.80503431391244e-05 7.52922604239541e-05 9.418008809252001e-05 9.318544210532308e-05 8.705170835869476e-05 8.905334727029644e-05 9.000882866336702e-05 9.530411201637931e-05 9.936990171219579e-05 9.987219887939781e-05 0.00010389225970000994 9.643119108497275e-05 8.296407391018524e-05 9.111948769699336e-05 -4.504217506960981e-05 -6.156133280358566e-05 -5.8167364661111834e-05 -4.811802361259001e-05 -5.587452453450972e-05 -5.567746824211995e-05 -1.8118517611923394e-05 -3.0355143782667924e-05 -1.2865602756597425e-05 1.145625162941774e-05 -8.250372337223834e-05 -0.00010739035497019918 5.0233097171536115e-05 0.00026794394120869863 -8.936020653888583e-05 3.1710736671685905e-05 4.282366556291738e-05 4.80277954198673e-05 0.0001092382901079013 0.00011561492080435855 -1.9217168200447523e-05 4.0040842788401604e-05 -6.645432142793544e-05 2.7419845866768626e-05 9.188121740545724e-05 8.623430148490045e-05 9.88848411581132e-05 7.63596227855869e-05 0.0001049979725321764 0.00010793382790657127 6.619238206171884e-05 4.4397464161522845e-05 2.8759121828902645e-05 6.02726608543374e-06 -2.3482630947893653e-05 5.154739683285041e-05 5.195064833129958e-05 -7.920855700663035e-05 0.00013026378325182222 6.288652170449869e-05 2.9657444854287173e-05 0.00011535769853339252 -1.5415810279345567e-05 0.0005713933524210432 0.00046073397051907175 -4.0559204403093934e-05 7.660683322663463e-05 6.306638042325575e-05 9.245145090040124e-05 -0.00011054434666813589 -0.00010685848574786313 -6.620506740290842e-05 -8.523218578330577e-05 -2.584024690471269e-05 5.031340855509229e-05 -7.748651384404522e-05 0.00023432856686273932 0.00044288295088553504 0.00042186700139334603 0.00043819204634370514 -8.574113654934402e-05 3.398648922831998e-05 0.00041847170882316657 0.0004221951394884101 -6.48904897621527e-06 0.0006586182457838113 -5.9197772298917576e-05 -7.442019309829082e-05 2.1322070446669756e-06 -3.6272288382606104e-06 0.00030827406210424464 0.0004822262038193535 -9.796962046374537e-05 2.466941444990665e-05 2.303167178859228e-05 0.0003752907993629436 1.686217759963843e-05 0.0005869366969909907 0.00013449103780167516 0.00011659662368741033 5.9730739506704095e-05 0.00046852215796221565 2.664219321496539e-05 1.301777782052642e-05 4.6054144136176596e-05 4.238595506952701e-05 3.585739062268019e-05 -1.1152785256069635e-05 6.526765062162579e-05 6.103488128401887e-05 7.8735717143575e-05 8.123898489386095e-05 7.616210684819913e-05 7.488132281462046e-05 0.00042610054187690164 -6.590028008021281e-05 -3.058765058228344e-06 0.0003976022894009453 0.0005792893666308732 8.898017212599249e-05 8.120570923543356e-05 -7.079015114062303e-05 -5.309199859991108e-05 0.0007613699698483861 0.0004642914807835811 7.238458105656361e-05 0.0006641649619199578 8.134696658987025e-05 9.256742685240041e-05 0.0004898753886012286 7.242193655266393e-05 6.389268709422696e-05 8.680483498832461e-05 0.00045085045345497337 9.357553705005461e-05 0.0004559563357444507 0.0004508258839292194 5.499507417768065e-05 9.21184896634963e-05 8.523025091180373e-05 9.017175802766107e-05 8.800791105929418e-05 9.397937913984326e-05 8.884058046441033e-05 9.283100359921928e-05 9.12771174936703e-05 9.280630665733954e-05 8.785483340794455e-05 8.964409105536663e-05 9.035628575317106e-05 9.126907639239028e-05 8.684256055577888e-05 9.246817557611194e-05 8.722226650862482e-05 9.230917932030336e-05 9.121047110110362e-05 9.218524038880039e-05 9.0920439501082e-05 -2.6779827961408302e-05 7.144817111571167e-05 8.034539721005138e-05 7.265694119420155e-05 7.76167267323399e-05 7.060874198124894e-05 8.319305829902503e-05 7.813407321979722e-05 8.32216619998934e-05 7.778782692552983e-05 9.288680071941291e-05 5.3486244538583585e-05 4.809900919423966e-05 0.00028318718917317095 0.000415756830427344 0.00037998708869086697 0.00043765152619017027 -3.389514883392904e-05 -6.106692430747946e-05 -1.0048353323305356e-05 0.00044120746283504914 0.00029977525479746065 4.6264536259838404e-05 3.6140719850806624e-05 0.00040561920497253853 -6.584005799889882e-05 0.0007600325928856085 0.0007284363261786279 7.112703205691814e-05 6.276131101161242e-05 5.036327407094026e-05 5.5964982244829806e-05 9.122602119642248e-05 9.698452292500937e-05 8.747590607914396e-05 8.573071347949488e-05 7.979478282330287e-05 8.027512809028392e-05 8.351737666033223e-05 8.243931475721403e-05 8.362544824465309e-05 8.034202301104912e-05 8.514738028066967e-05 8.445616785168988e-05 8.57191131374479e-05 8.977912562188587e-05 7.737330235368688e-05 8.699653699659826e-05 5.53588160833906e-05 7.8384417600439