<?xml version="1.0"?>
<VTKFile type="UnstructuredGrid"  version="0.1"  >
<UnstructuredGrid>
<Piece  NumberOfPoints="1289" NumberOfCells="2413">
<Points>
<DataArray  type="Float64"  NumberOfComponents="3"  format="ascii">0 0 0  0 0.41 0  2.2 0.41 0  2.2 0 0  0.1 0.1 0  0.1 0.3 0  0.8 0.3 0  0.8 0.1 0  0.25 0.2 0  0.248976 0.210065 0  0.245948 0.219718 0  0.241038 0.228563 0  0.234448 0.23624 0  0.226448 0.242432 0  0.217365 0.246888 0  0.207571 0.249423 0  0.197468 0.249936 0  0.187467 0.248404 0  0.17798 0.24489 0  0.169395 0.239539 0  0.162062 0.232569 0  0.156283 0.224265 0  0.152293 0.214968 0  0.150257 0.205058 0  0.150257 0.194942 0  0.152293 0.185032 0  0.156283 0.175735 0  0.162062 0.167431 0  0.169395 0.160461 0  0.17798 0.15511 0  0.187467 0.151596 0  0.197468 0.150064 0  0.207571 0.150577 0  0.217365 0.153112 0  0.226448 0.157568 0  0.234448 0.16376 0  0.241038 0.171437 0  0.245948 0.180282 0  0.248976 0.189935 0  1.1 0 0  1.1 0.41 0  0.1 0.2 0  0.45 0.1 0  0.45 0.3 0  0.55 0 0  0.275 0.1 0  0.275 0.3 0  0.275 0 0  0.55 0.41 0  0 0.205 0  0.825 0 0  0.825 0.41 0  0.275 0.41 0  0.1 0.15 0  0.1875 0.1 0  0.1 0.25 0  0.1875 0.3 0  0.132322 0.2 0  0.241426 0.253518 0  0.241426 0.146482 0  0.264574 0.17974 0  0.264574 0.22026 0  0.138434 0.187348 0  0.153372 0.150948 0  0.148413 0.164094 0  0.176495 0.136535 0  0.22768 0.143571 0  0.138434 0.212652 0  0.148413 0.235906 0  0.176495 0.263465 0  0.22768 0.256429 0  0.23125 0.3 0  0.24769 0.24094 0  0.23125 0.1 0  0.24769 0.15906 0  0.26253 0.193641 0  0.190482 0.137872 0  0.166753 0.146661 0  0.157737 0.244461 0  0.190482 0.262128 0  0.203107 0.261264 0  0.253635 0.22977 0  0.203107 0.138736 0  0.253635 0.17023 0  0.261028 0.206206 0  0.167707 0.251809 0  0.143629 0.224191 0  0.215302 0.2591 0  0.270465 0.245894 0  0.215302 0.1409 0  0.270465 0.154106 0  0.284052 0.202587 0  0.14375 0.3 0  0.209375 0.3 0  0.225966 0.278501 0  0.209375 0.1 0  0.225966 0.121499 0  0.211613 0.273759 0  0.211613 0.126241 0  0.143629 0.175809 0  0.1 0.175 0  0.133484 0.164832 0  0.144491 0.249539 0  0.1 0.225 0  0.133484 0.235168 0  0.3625 0.3 0  0.25691 0.253381 0  0.25691 0.146619 0  0.277205 0.188698 0  0.184724 0.275712 0  0.237372 0.268285 0  0.184724 0.124288 0  0.237372 0.131715 0  0.197578 0.273149 0  0.193656 0.286994 0  0.197578 0.126851 0  0.193656 0.113006 0  0.122953 0.187671 0  0.118362 0.153758 0  0.155372 0.258107 0  0.122953 0.212329 0  0.118362 0.246242 0  0.276394 0.27264 0  0.276394 0.12736 0  0.280965 0.170013 0  0.253125 0.3 0  0.14375 0.1 0  0.253125 0.1 0  0.269489 0.26014 0  0.269489 0.13986 0  0.303639 0.184297 0  0.165625 0.3 0  0.134742 0.273113 0  0.257831 0.274737 0  0.255279 0.128499 0  0.3625 0.1 0  0.165625 0.1 0  0.162031 0.132368 0  0.134955 0.126405 0  0.149334 0.125568 0  0.142936 0.139597 0  0.12695 0.140259 0  0.242514 0.285501 0  0.242514 0.114499 0  0.1 0.125 0  0.117483 0.12555 0  0.11154 0.139776 0  0.121875 0.1 0  0.109143 0.1125 0  0.126805 0.114 0  0.220313 0.29129 0  0.351562 0.287369 0  0.207222 0.2866 0  0.220312 0.10871 0  0.1375 0 0  0.20625 0 0  0.207222 0.1134 0  0.11722 0.17118 0  0.1 0.1625 0  0.0778409 0.16875 0  0.0862762 0.15625 0  0 0.15375 0  0 0.1025 0  0.11722 0.22882 0  0.1 0.2375 0  0 0.3075 0  0.0862762 0.23125 0  0.0598995 0.222547 0  0.0860223 0.2125 0  0.289584 0.181469 0  0.300267 0.16446 0  0.163832 0.269071 0  0.149597 0.273325 0  0.1 0.275 0  0.268498 0.285953 0  0.31875 0.3 0  0.294154 0.254672 0  0.296875 0.3 0  0.293558 0.271845 0  0.285095 0.286799 0  0.324298 0.264316 0  0.307866 0.263745 0  0.317093 0.234901 0  0.315485 0.281219 0  0.316547 0.250625 0  0.344693 0.243731 0  0.331592 0.251147 0  0.35129 0.270663 0  0.338689 0.263683 0  0.340625 0.3 0  0.249849 0.264383 0  0.265097 0.11422 0  0.284688 0.156136 0  0.242188 0.324017 0  0.0856613 0.2625 0  0.132812 0.0612217 0  0.264062 0.0612217 0  0.198437 0.07598340000000001 0  0.0860223 0.1375 0  0.0794526 0.191089 0  0.285228 0.140397 0  0.298655 0.148737 0  0.31875 0.1 0  0.327335 0.15374 0  0.296875 0.1 0  0.312289 0.155283 0  0.313348 0.135607 0  0.321802 0.173916 0  0.298433 0.134116 0  0.112124 0.2625 0  0.127526 0.259083 0  0.121875 0.3 0  0.0682687 0.241503 0  0.1 0.2875 0  0.117762 0.28125 0  0.107813 0.3 0  0.103906 0.313849 0  0.0778409 0.28125 0  0.1375 0.41 0  0.0862762 0.29375 0  0.08886860000000001 0.24375 0  0.307812 0.338778 0  0.307812 0.292227 0  0.33216 0.279164 0  0.387888 0.266414 0  0.264063 0.31948 0  0.110937 0.07598340000000001 0  0.242188 0.07598340000000001 0  0.319914 0.11839 0  0.340625 0.1 0  0.334448 0.133793 0  0.329687 0.108539 0  0.346259 0.118491 0  0.360334 0.173636 0  0.327539 0.205033 0  0.132812 0.288712 0  0.362436 0.278836 0  0.368105 0.259418 0  0.4125 0.41 0  0.329687 0.324017 0  0.329687 0.292306 0  0.285938 0.318952 0  0.417187 0.338778 0  0.324481 0.14148 0  0.351562 0.106771 0  0.40625 0.1 0  0.341028 0.168342 0  0.319221 0.190479 0  0.335292 0.184501 0  0.305563 0.20794 0  0.220313 0.31948 0  0.132812 0.332772 0  0.0865876 0.311259 0  0.0598995 0.302453 0  0.0906541 0.343255 0  0.353543 0.255837 0  0.36574 0.237633 0  0.405007 0.254279 0  0.275795 0.352123 0  0.4125 0 0  0.35493 0.137394 0  0.366563 0.120618 0  0.35917 0.205246 0  0.198438 0.318952 0  0.0626109 0.263892 0  0.40625 0.3 0  0.354809 0.155936 0  0.386512 0.146872 0  0.373101 0.159939 0  0.384375 0.1 0  0.343394 0.19929 0  0.350682 0.185683 0  0.368101 0.189748 0  0.344016 0.221511 0  0.391108 0.213329 0  0.376279 0.204783 0  0.398843 0.182768 0  0.375804 0.222746 0  0.390665 0.196958 0  0.394004 0.23518 0  0.359883 0.222828 0  0.419908 0.204359 0  0.404243 0.204783 0  0.412615 0.224526 0  0.20625 0.41 0  0.165625 0.325257 0  0.0347982 0.244954 0  0.379558 0.247154 0  0.34165 0.147603 0  0.372264 0.136992 0  0.388988 0.121989 0  0.373437 0.108554 0  0.351562 0.31948 0  0.391367 0.16527 0  0.399572 0.223324 0  0.452011 0.227371 0  0.40877 0.239392 0  0.431491 0.237337 0  0.421224 0.250459 0  0.449619 0.262098 0  0.418865 0.276779 0  0.437063 0.252274 0  0.415673 0.263227 0  0.430988 0.266772 0  0.402767 0.273419 0  0.452967 0.244883 0  0.428125 0.3 0  0.408502 0.286186 0  0.384375 0.3 0  0.392267 0.285807 0  0.465927 0.219339 0  0.43489 0.283846 0  0.376424 0.286289 0  0.625 0.3 0  0.473533 0.205186 0  0.461713 0.255517 0  0.5375 0.3 0  0.465725 0.235405 0  0.44631 0.201425 0  0.471875 0.3 0  0.494307 0.227729 0  0.459448 0.206736 0  0.462294 0.180792 0  0.478933 0.227536 0  0.486793 0.21381 0  0.486322 0.251373 0  0.50065 0.215318 0  0.54005 0.175389 0  0.474633 0.189893 0  0.512916 0.208697 0  0.49531 0.199967 0  0.475889 0.175275 0  0.625 0.1 0  0.459311 0.153933 0  0.513645 0.242704 0  0.392892 0.248539 0  0.374815 0.271913 0  0.365974 0.14871 0  0.395312 0.109184 0  0.417061 0.123981 0  0.483196 0.277003 0  0.381967 0.179632 0  0.429898 0.219374 0  0.433473 0.206165 0  0.43149 0.181038 0  0.444208 0.215487 0  0.472985 0.247309 0  0.49375 0.3 0  0.475579 0.262714 0  0.49916 0.274293 0  0.501175 0.184809 0  0.514164 0.225681 0  0.543648 0.214977 0  0.5341630000000001 0.23481 0  0.527396 0.216171 0  0.5375 0.1 0  0.534548 0.202315 0  0.561545 0.192513 0  0.5494289999999999 0.201221 0  0.570923 0.218346 0  0.412582 0.149833 0  0.489327 0.264745 0  0.502439 0.254775 0  0.462391 0.271166 0  0.496775 0.241732 0  0.5294410000000001 0.268606 0  0.482812 0.291099 0  0.46879 0.285038 0  0.452663 0.284065 0  0.51789 0.257882 0  0.53408 0.252026 0  0.560142 0.243543 0  0.545708 0.243474 0  0.547532 0.229019 0  0.55282 0.265323 0  0.398971 0.153424 0  0.400349 0.135684 0  0.410135 0.168145 0  0.428823 0.161323 0  0.415266 0.183779 0  0.329687 0.0810483 0  0.395312 0.0612217 0  0.373437 0.318952 0  0.439062 0.324017 0  0.561816 0.229354 0  0.585029 0.239287 0  0.431827 0.139854 0  0.446796 0.168929 0  0.351562 0.07598340000000001 0  0.395313 0.318944 0  0.54337 0.150762 0  0.460937 0.31948 0  0.418412 0.137529 0  0.428125 0.1 0  0.442783 0.152332 0  0.450742 0.134294 0  0.373437 0.0805201 0  0.384383 0.342558 0  0.482812 0.318952 0  0.429239 0.127457 0  0.444274 0.117405 0  0.426548 0.113815 0  0.49375 0.1 0  0.488954 0.113984 0  0.457973 0.121842 0  0.471621 0.137346 0  0.515625 0.325257 0  0.48125 0.41 0  0.417187 0.07598340000000001 0  0.496363 0.126778 0  0.479043 0.155715 0  0.439062 0.0805201 0  0.481795 0.126919 0  0.471875 0.1 0  0.489227 0.142159 0  0.515625 0.1 0  0.520062 0.147117 0  0.501244 0.161791 0  0.505431 0.112984 0  0.505344 0.14029 0  0.526563 0.119081 0  0.5181750000000001 0.131908 0  0.539868 0.136937 0  0.460937 0.108383 0  0.474242 0.114415 0  0.460937 0.0810483 0  0.487841 0.167168 0  0.526563 0.0612217 0  0.526563 0.106406 0  0.537619 0.112743 0  0.58125 0.1 0  0.559375 0.1 0  0.482812 0.08105569999999999 0  0.471883 0.0587655 0  0.570312 0.129396 0  0.548437 0.07598340000000001 0  0.504687 0.08105569999999999 0  0.49375 0.0470127 0  0.570312 0.112663 0  0.592798 0.12103 0  0.553986 0.12103 0  0.570312 0.0805201 0  0.48125 0 0  0.114787 0.2 0  0.160769 0.284765 0  0.175816 0.288361 0  0.162602 0.116048 0  0.154687 0.07598340000000001 0  0.176562 0.0805201 0  0.0598995 0.147547 0  0.307812 0.109924 0  0.291279 0.117157 0  0.278491 0.112989 0  0.285937 0.07598340000000001 0  0.307812 0.0805201 0  0.296928 0.196743 0  0.318141 0.218507 0  0.330208 0.227509 0  0.301397 0.225668 0  0.302706 0.241401 0  0.292574 0.21424 0  0.282762 0.230935 0  0.284351 0.244775 0  0.269553 0.23261 0  0.278572 0.217242 0  0.226924 0.342606 0  0.446928 0.185396 0  0.515625 0.3 0  0.504687 0.288879 0  0.515256 0.276534 0  0.529479 0.285328 0  0.58125 0.3 0  0.541969 0.272936 0  0.559375 0.3 0  0.556796 0.282529 0  0.543473 0.287206 0  0.581429 0.267774 0  0.566728 0.271171 0  0.570869 0.255585 0  0.577404 0.283865 0  0.603125 0.3 0  0.597531 0.28035 0  0.570312 0.338778 0  0.592188 0.292492 0  0.603513 0.256094 0  0.614063 0.286265 0  0.610329 0.27064 0  0.632708 0.251285 0  0.657223 0.261594 0  0.618789 0.257807 0  0.614188 0.22987 0  0.630935 0.265614 
[...]
<PointData  Scalars="p"> 
	<DataArray  type="Float64"  Name="p"  format="ascii">
0.00045745963179858547 0.00043337691522437493 -5.350251087250396e-08 -1.9048969798551727e-08 0.000510302444883996 0.0005029047517194792 4.883686977811292e-05 9.428656872072738e-05 -0.0002829418631224998 -0.00029351121784431923 -0.000313239035516383 -0.0003334111170831324 -0.00036659459923083025 -0.00042018613432040296 -0.0005132775484896376 -0.0006529312511540626 -0.0007664816002922682 -0.000937095182774177 -0.0007086118530249106 -0.00032407496287246176 0.0002179517622747851 0.0008870150476896301 0.0014220630791387274 0.0017574257784118774 0.0017524097164701284 0.001405528174154587 0.0008745740992381775 0.00020859912589715174 -0.00043059284214607405 -0.0007114935651360708 -0.0008929932081307205 -0.0007681737319877453 -0.0006455998979651788 -0.0005124692741880947 -0.0004180087575444517 -0.0003644942694322216 -0.0003286618397139047 -0.00030692529220992763 -0.0002901758054653795 8.796581664865169e-05 8.55687696810019e-05 0.0011435259419377009 -0.000146036360759406 -0.00012778576467733892 -5.623060927468557e-05 -0.00016547978944807156 -0.00018092141147889925 3.536620776515904e-05 -1.6139434288775625e-05 0.0007447312544874901 8.472023759462399e-05 3.85810192611367e-05 4.5071430797473435e-05 0.000812666933011262 2.610240223532564e-05 0.0008117962900057274 3.567221629174744e-05 0.001565077251997243 -0.0003499124069304571 -0.0003473889763001404 -0.00030510798581360684 -0.00030803216304471333 0.0015146527635847649 0.0003168611130435678 0.0007255521068829015 -0.00033951563790423473 -0.0004238291365706803 0.0015276721058154372 0.0007319249775335957 -0.00032704271031526417 -0.000424022487548748 -0.00012831588938348414 -0.0003372634836776122 -0.00012697912180415855 -0.00033467442838248 -0.00029409577593896984 -0.0005958871940214816 -0.00020169886955764436 0.00020419006647161175 -0.0006120136055459157 -0.0006115416528780669 -0.00032080262962599194 -0.0006074810227251364 -0.00031767100036478974 -0.0002954600610050596 -0.00023655746874508466 0.0011767466276239088 -0.0005108122114796258 -0.00031577929460718834 -0.0005064439121763366 -0.00031247607531473433 -0.00030123372530921214 0.00034079632819926706 -9.2733237961143e-05 -0.00031199303531510424 -5.856767526849232e-05 -0.00029708540062356833 -0.00039908758286781007 -0.00039422017999896287 0.0011637283858898036 0.0010218650155812928 0.0010159378367362367 0.0005439036538784 0.0010416825368004894 0.0010376668745055325 -0.00022222863259024837 -0.0003203205843719338 -0.0003206953997843691 -0.00029962210737200575 -0.00022139362948884943 -0.00036005963174669844 -0.00022437529115448636 -0.0003597835978612143 -0.0003553119922418014 -0.00012703175381963329 -0.00033620943431899534 -0.00011952444823171111 0.0013489555641223083 0.0008719690113039031 0.00025789031465255476 0.001347235205228071 0.000877062938043732 -0.0002936972667453569 -0.00028819246581331256 -0.0003089671075722679 -0.00017109959177685232 0.00034053442300371455 -0.00014597040072813894 -0.0003118376045856067 -0.0003077392618781654 -0.00030382304945232493 0.00018896493694479485 0.0005114931981288715 -0.00030753214336971417 -0.00029795485615577026 -0.00018541751283356498 0.0002126877283445421 0.00011699193293466337 0.0004913391373838967 0.0003420683685398162 0.0004276259537406915 0.0006455755059226235 -0.00025072383045002706 -0.00023709755583841625 0.0006242439339851392 0.0005872046736239408 0.0007100558758473033 0.00045192305529098275 0.0005373844580426713 0.0004854936006708997 -0.00017653331413404827 -0.0002706953727236261 -0.00021939403089865644 -0.00017337469116559344 0.0003775787480362902 0.0002036411851313398 -0.00019386118219760561 0.0010838780677100539 0.0009146680426755601 0.0008778521839288199 0.0008233596668806259 0.0006799225228329849 0.0005423454898676273 0.0010859386881341448 0.0009353215683033413 0.0005128361169719077 0.000897361394063176 0.0008344078217778038 0.0009927276757914704 -0.00030411148327781054 -0.00030549492606535164 5.848807472681554e-05 0.0003151437894842266 0.0006236699005538482 -0.00025467259521607234 -0.00021131791914404832 -0.00032182368376451137 -0.00020852823391019897 -0.00031031290881125697 -0.0002571283291365405 -0.0003277849970269576 -0.000319324478612037 -0.00032724143785586336 -0.00028949334401355683 -0.00032894339021355515 -0.0003351533528752074 -0.0003337081707934403 -0.00031826183314024226 -0.00032714584631950264 -0.00023621384152104947 -0.00032642147354322647 -0.0002427332536212946 -0.0003084308994217576 -1.313784349455819e-05 0.0007165040084461383 0.0003703050330029379 -1.7504349521437738e-06 0.00013332551109934774 0.0006973048240159991 0.0009552093590820872 -0.0003010037143635194 -0.00030227431450800346 -0.00018491120739085097 -0.0002905208877181164 -0.00018749732870590796 -0.000299232602137867 -0.00028827516859613136 -0.0002987937378173025 -0.0002907495838846645 0.0006971470190789932 0.0006494618553794513 0.0004488936765113538 0.0007854233041384007 0.0005663322566141131 0.0005439256440678579 0.000481453051656274 0.00045137679610998097 0.0005968187128201037 0.000353286302007334 0.0005451342708672171 0.0008413237206440863 -8.063110433851546e-05 -0.0002496865730212577 -0.0003019952812547789 -0.00029794204466976955 -8.281875579872226e-05 0.0004389304650039329 -2.564531929592875e-07 -0.0002524044661095017 -0.00019340999488510083 -0.00027112814965402613 -0.00021819555584359646 -0.00024177213296649062 -0.00027474827807411956 -0.00030776871399110277 0.0004248601823306494 -0.00029772600255393016 -0.00032405609646243887 -8.113807124749963e-05 -0.00013404798242782113 -0.0002621899066249803 -0.00011529633950417721 -0.00011238652352635347 -0.0002840605160167604 -0.00020547524900277906 -0.00016838299571410073 -0.00028678814134107963 -0.00030244313209027335 -0.00029541062198328044 -0.00030913499782806586 -5.157656236274321e-06 0.0003637288488093576 0.00048713086694952785 0.0005264230983888542 0.00041949206260302746 -0.00033278310776698887 -0.0003272319632684388 -0.00028311330384802696 1.148875892939604e-05 -9.279798550547731e-05 -0.0002596947241578737 -0.00022955938499998225 -0.00029888720905967 0.00010137027546915691 0.0006734651203774767 -0.00018970996822258464 -0.0002711263211259851 -0.00024094212561168106 -0.0002572984601910828 -0.00017868014330500736 -0.0003004986314205164 -0.0002877077044223634 -0.0002792933923973254 -0.0003200978871010511 -0.0002837374335396913 -0.0002877457257570202 -0.000245598511860463 -0.00030902138128810036 -0.0002660524757175919 -0.00030081892213446585 -0.00031747763465977133 -0.00023543944245175912 -0.00025868858854789285 -0.00026575959828473806 0.000209980171737138 0.00023455091710524096 0.0007007039031232223 -0.0003210229222968791 -0.0002770080350330499 -0.0002459446336995471 -0.000218690822998745 -0.00020468487982997746 -0.00016208487014493658 -0.00024396867881538493 -0.0002843551558382894 -0.00017987458663466652 -0.0002794849441269273 -0.00023176187876185187 -0.00025139323576798205 -0.0001703890830051924 -0.00022325381801020127 -0.00021144081342013742 -0.0002526847796634987 -0.00021329477900962387 -0.0002617620170237584 -0.00017200091012037227 -0.00016156981502920217 -0.00022383153078262664 -0.0002185194294329537 -0.000247824619818461 -0.00014618508268332558 -0.00017857061803083185 -0.0002654942350042276 4.752635117410994e-05 -0.0001369249433314912 -0.00013992523274665013 1.4685420523213136e-06 -0.00014043605114202784 -0.00019177756663839814 -9.062166563127877e-05 -6.86862601609238e-05 -0.00016409895402422147 -0.00017283154294145492 -0.0001083332994309282 -0.00010023095893315992 -7.43368098964394e-05 -6.753541170291561e-05 -6.0950289950885605e-05 -0.00014761267574554663 -5.166476058956678e-05 -9.97216569861508e-05 -0.00016086427562762224 1.5357342408928047e-05 -0.00018902302453152725 -1.091986731815253e-05 -0.00030391633946311706 -0.0002995198030801849 -0.00025780245918659013 -0.00019286341839700293 -0.00020410357653920388 -7.403131577267222e-05 -0.0002600762172401301 -0.00022992732739802592 -0.00021471887302191965 -0.00020970819296701448 -0.0001972062255397514 -0.00011344668775062912 -5.3270833740904397e-05 -9.824870130045099e-05 -4.203917080835315e-05 -0.00011305939174633205 -2.3409855828201715e-05 1.578120417050578e-05 2.554808399937158e-05 -1.0609187044136369e-05 -6.500360277681242e-05 -2.4009791380047343e-05 2.305560894357105e-06 -1.4729746249108444e-06 5.73014828695964e-05 -0.00022218467417025293 -6.286093566423486e-05 -3.3143287029830884e-05 -0.00012807423314241764 -5.1581143228994935e-05 1.4810980312470457e-05 -7.347071439385234e-05 -0.00010441356929577264 -0.00013930913618332246 5.623822515305311e-07 2.9667920300200436e-05 6.37533985901396e-05 4.565806385181651e-05 4.057938570808165e-05 4.698592764386606e-05 -0.00023367653008183893 -0.00022582250281507355 -0.0002291957568244621 -0.00021227164916651646 -0.0002285286769497749 -0.0001364721504009237 -0.00010766017463244839 -0.00016850839193006912 -0.0001132937020163463 5.9537643923731755e-05 8.13420618923227e-05 -0.00020699343683049535 -0.0001954506411917662 -0.00012907318979180266 -0.00015444136506047014 -6.885134543614352e-05 -9.507260687730995e-05 -0.00021311668168157443 -0.00016142401065554556 -0.00020183809781763014 -0.00019108855415182153 -0.00014259655197546795 -0.00011351207125614768 -7.340524248428708e-05 -0.00019965708141648982 -0.0001753750345488354 -0.000188610504558606 -0.0001117441626259789 -0.00013435842669321484 -0.0001743985238037376 -0.00017452436862741956 -3.09889180600375e-05 -7.1028388220514e-05 -0.00011869830439900841 -0.00013651922748840643 -0.0001686790619185059 -0.00012700905634975538 -0.0001566924672980433 -0.00012892042653240296 -0.00015683240745697962 -8.72062566276098e-05 -0.00011183467068870308 -0.00013844324978174748 -0.00011120156622624075 -0.00013458937294064642 -9.015114054992914e-05 -0.00011076139421819653 -7.432701588929632e-05 -0.00015384102333751377 -0.0001471877498796024 -0.0001186663350090438 -0.00015162556025342174 -6.149589856167119e-05 -8.20306443488058e-05 -6.954110127162668e-05 -2.0243196616542352e-05 -4.338289532716126e-05 -9.470778476521656e-05 -9.357363946207916e-05 -2.1791306310163308e-05 -4.8590962277824305e-05 -8.738010363996139e-05 -7.114787642707302e-05 -2.6087189875736176e-05 5.231950502113948e-06 -4.9150189068347555e-05 -4.041443751390273e-05 -8.632903879201907e-05 0.0013130480759257393 0.00019868944024169186 1.7242536390999904e-05 0.00016067599816609198 0.0003052376995412768 0.00020115827386873374 0.0007228480157694426 -0.00022948190961536588 -0.0002504321277569073 -0.0002309316322876287 -8.228718274067885e-05 -0.00011892561061265652 -0.00030350830194262793 -0.0003170941603623477 -0.00032509658306945825 -0.000318393701019063 -0.0003244003308611722 -0.0003091328158007186 -0.00031645971793565683 -0.0003190411526699247 -0.0003163861705610242 -0.0003074845329383823 9.175405567370766e-05 -0.00019127847582655556 -2.481763399485111e-05 -3.612099495604747e-05 -1.1301075663476197e-05 2.71446542166446e-06 3.279085275496331e-05 2.8512197388823396e-05 2.0775044272148176e-05 3.3130020985038634e-05 1.7837825554388907e-05 6.206137483706387e-05 5.012796491711513e-05 6.640646397047848e-05 4.53434354543408e-05 4.221338784325843e-05 5.4861762183735066e-05 4.452068509385774e-06 4.3900372654527526e-05 7.599427886318377e-05 5.348376458769351e-05 6.461880647118962e-05 7.739482838882798e-05 6.531580996237164e-05 7.402062305328861e-05 8.913102673954955e-05 6.709217033422267e-05 8.40082219512539e-05 5.050224282007783e-05 9.111949733090671e-05 4.869612803934805e-05 5.592058734312159e-05 6.067422471159111e-05 4.939897789795813e-05 5.6675640387456146e-05 -6.5552874170645415e-06 2.5450275347878994e-05 6.561664384623497e-05 7.484815178246949e-05 5.299918666410771e-05 6.356974661466492e-05 2.818192248578748e-05 3.417677973304324e-05 6.168869737358788e-05 5.000409425488363e-05 8.036888639050165e-05 5.423591590169035e-05 5.601391546093034e-05 6.915431791824346e-05 7.258269302095358e-05 8.028292176005038e-05 7.545471354244154e-05 8.489764803156492e-05 7.113011910002195e-05 0.00010181774119792368 0.00010091492094843895 9.193929516315032e-05 6.6637363111485e-05 9.772784546409624e-05 7.168452780328337e-05 6.080968563701571e-05 6.694163812070716e-05 5.5243324691950755e-05 4.596493367042865e-05 4.846876514354989e-05 7.422954536250133e-05 6.125278193046686e-05 5.990356457274271e-05 5.488067126446336e-05 5.5203931015259644e-05 6.948931666859483e-05 8.579863870961691e-05 6.626631774023647e-05 7.175891538594196e-05 6.362193277620189e-05 7.061589610373755e-05 8.528215811416327e-05 8.128537922433278e-05 4.98663266642497e-05 5.6405892284397356e-05 6.090863011680979e-05 6.092226797532358e-05 6.990119555623129e-05 5.946635331366232e-05 5.854555306617259e-05 3.9214202300881506e-05 5.896965082273145e-05 5.196969205406637e-05 4.1906476942690116e-05 3.853799291756871e-05 3.19794285078808e-05 9.079383938554013e-05 7.7838814250372e-05 7.968301780317928e-05 9.340644525113611e-05 3.424678794395446e-05 4.376904255030287e-05 9.531260738529771e-05 4.2602250477219325e-05 7.832764710995919e-05 8.76453415397144e-05 8.787537932850923e-05 8.499280612578311e-05 3.5484262341431525e-05 3.506202998388459e-05 3.987408682759527e-05 0.00011563261586456457 9.416584685411724e-05 9.877530495852699e-05 8.704300914455516e-05 9.654419571478608e-05 0.00010005695933314113 9.731535286688746e-05 0.00010275665066547623 9.441761847835809e-05 9.05661453955928e-05 9.821257138456084e-05 0.00012646150578825253 0.0001074258340852212 0.0001013156173815813 6.544458316288072e-05 0.00010759034037844261 0.00010067989143928064 0.00011901209774948307 0.00010982179200600092 0.00010841452709165272 0.00010768680695217561 0.00011929930223676327 0.00011163443262813847 0.00011497070036282079 0.00011914882223866851 0.0001185576536839455 0.0001250523883581797 0.00012669039691975693 0.00012143758852182529 0.00012614711457076453 0.00012015892058880981 4.019471797835278e-05 0.00011102454271781901 8.145870773079174e-05 8.49071585990771e-05 0.00011327193463972001 0.00010527786595948549 0.00011228629130943533 0.00011902191238923397 8.538411301349107e-05 9.332849723970618e-05 0.00010212449300648445 9.118456638935046e-05 9.33809656953345e-05 5.980025195530766e-05 7.77959635580722e-05 8.045760139241581e-05 6.808016301454422e-05 1.8180028177898303e-05 4.8296297585825326e-05 4.386930726595856e-05 2.290182920768141e-05 4.013145599559017e-05 6.580183831439616e-05 7.070133822124631e-05 1.000489824286032e-05 3.9273581407578245e-05 6.43001090488783e-05 2.6421478164602612e-05 -2.596473163715884e-06 2.1398580025148815e-05 -1.4396576223327048e-05 7.556909466851034e-05 8.678713030704294e-05 9.886675974156851e-05 5.721282845389862e-05 8.788659503152155e-05 3.058924637014999e-05 -5.902394913878815e-06 -2.327077547140851e-05 1.4718687177455725e-05 -7.916758258348403e-06 -4.402025415789913e-05 -4.3039697750915e-05 -3.1781528399784105e-05 6.340811427401653e-05 6.124062717529796e-05 7.49011250583214e-05 1.2029720649057143e-05 0.00010530489718553137 3.705027833723026e-05 -1.3079623738097247e-05 -3.1112118711052466e-05 -5.640228801596145e-07 -1.844542846148096e-06 7.860218140474405e-05 -2.7165286544023337e-05 2.7979386929798248e-05 9.652187094839678e-05 8.74734298020732e-05 2.514729230378144e-05 6.049544918587464e-05 8.665070875124775e-05 9.432937226330441e-05 9.15159404121812e-05 0.000109709458578238 5.381558849692407e-05 0.00010109091095675393 7.879774454834962e-05 0.00010782819893903388 9.781619609869047e-05 9.653081939997308e-05 8.725218121403753e-05 9.508153878541954e-05 0.00010198544445123125 0.0001098311991520079 0.000118851220070236 0.00011382122896774249 0.00011334914936855698 0.00012015940281736884 0.00011417724077838164 0.00010748498292037858 0.00011445256588053012 0.00010190681320732983 0.00012127757761798179 0.000111391218451279 0.00012198390053138472 -5.3376181751775805e-05 -5.0490953675176847e-05 -5.364288648527192e-05 -7.229146739179798e-05 -0.00010617149840005296 -0.00011808781226637558 -8.753747042674545e-05 -7.817435758421171e-05 -4.503105025635158e-05 -2.8023299874952655e-05 -8.398262919732038e-05 -9.437580542946893e-05 5.3395679593097827e-05 0.0002709321377312105 -7.678060340135363e-05 2.7811097179457856e-05 8.614357605416996e-05 7.84129059517667e-05 8.363462415404508e-05 8.09746653902565e-05 1.3739608913792452e-05 2.756645525427933e-05 -7.63527299007259e-05 3.2554862394489276e-05 9.097510128763076e-05 9.301591464208699e-05 9.788647537330413e-05 9.292742701291205e-05 0.00010266585771104719 0.00010734933982614137 5.650372000858506e-05 5.397900691289786e-05 3.268946652467685e-05 3.38220084518996e-05 -4.421750126136851e-05 6.846910488962441e-05 9.418535518487189e-05 -7.122465264556176e-05 0.00012671393417794535 8.602887685445603e-05 7.527630212498657e-05 0.00011221279068280822 2.0269763125298317e-05 0.0005739055454036658 0.00045936048688697976 -2.479036484743448e-05 6.715282432437933e-05 3.1297838982006103e-05 9.824096324398625e-05 -9.519517423558376e-05 -9.242602834370244e-05 -5.6081779631346624e-05 -7.260966097572814e-05 -1.6184284945687664e-05 2.7423948982721403e-05 -6.784047663679183e-05 0.00023245201948906473 0.00044541028347055723 0.00042055873969632857 0.0004367377277350682 -7.223828772937113e-05 2.8514706286680537e-05 0.00042093186014591845 0.0004208014183882264 -1.299273387058009e-05 0.000658009280780515 -6.357663771364738e-05 -8.278039321295055e-05 2.943157795061959e-05 4.819703306890366e-06 0.00030682815851555554 0.0004808693631841683 -8.368212521393407e-05 2.821718366649838e-05 2.677352495942501e-05 0.00037400576767261494 3.0247650129290325e-05 0.0005859254445597528 0.00013890371859740904 0.00012196823761699385 6.594597254927773e-05 0.0004711571985091341 7.478469503209649e-06 -1.3538973035768529e-05 7.744531475097702e-05 5.442055016742992e-05 3.78402274801396e-05 -3.298301924613789e-05 9.417991682646222e-05 8.783704219536743e-05 8.553555927532763e-05 6.368185728466009e-05 9.384742665361603e-05 7.055991533971967e-05 0.00042469350361629886 -7.458186816418882e-05 2.4223678758782803e-05 0.000396347709511519 0.0005816408914259187 7.146499084849053e-05 6.453018105065995e-05 -7.576340852415024e-05 -4.307740960609378e-05 0.0007624978007386778 0.00046696957865838203 7.801953770851865e-05 0.0006660838749895904 6.194423672746311e-05 7.852271468216058e-05 0.0004925041568412851 6.886720800101266e-05 7.784112330875363e-05 7.766991293939203e-05 0.0004535142939689701 8.239663692046953e-05 0.0004586260098373111 0.00045346718831240835 8.538125515798675e-05 6.592683740062373e-05 0.0001046955022742299 8.654021072211979e-05 6.580534926244343e-05 0.00010160384679716182 5.8267646925523496e-05 7.880604528713047e-05 6.863269705825175e-05 7.883528179432433e-05 8.849672544864864e-05 7.795767001222199e-05 8.699439120108645e-05 8.566347880404605e-05 9.149720360858311e-05 7.378625287617948e-05 6.391143711425029e-05 6.72110118751899e-05 6.749802136151355e-05 7.919397850366633e-05 7.848948930503686e-05 6.487403100621327e-07 3.616433621417909e-05 7.005049464193983e-05 4.977365460049011e-05 5.3242844933180276e-05 4.283632177882239e-05 6.201979859060378e-05 6.591077695276337e-05 9.006099224561106e-05 8.984707572045857e-05 0.0001024613609219724 3.0034612800284126e-05 2.772460696116411e-05 0.0002814363645165145 0.0004182520255247452 0.0003825120626037714 0.0004402238563701765 -4.178123026815757e-05 -6.962195646315709e-05 2.2739406853993726e-05 0.00043977469977313276 0.00030271335353531536 7.602317927107767e-05 3.143734708660708e-05 0.0004043261483973861 -6.723061588642712e-05 0.0007603724372025082 0.0007295920472779098 7.109561544105157e-05 7.977233459458359e-05 8.634378763352726e-05 8.329004477992972e-05 9.048545456877472e-05 0.00010613828459761509 0.00010315442484595535 8.927995397734684e-05 9.325214611055191e-05 9.844278943728697e-05 9.293450683174903e-05 9.677470665152236e-05 9.947219161768077e-05 9.991617359253596e-05 8.328998315284459e-05 8.680140420860493e-05 8.441977477868733e-05 9.136787017010394e-05 8.442961289810891e-05 8.436112050605116e-05 5.5311448669965384e-05 8.47030726505011e-05 9.0771992787