<?xml version="1.0"?>
<VTKFile type="UnstructuredGrid"  version="0.1"  >
<UnstructuredGrid>
<Piece  NumberOfPoints="1289" NumberOfCells="2413">
<Points>
<DataArray  type="Float64"  NumberOfComponents="3"  format="ascii">0 0 0  0 0.41 0  2.2 0.41 0  2.2 0 0  0.1 0.1 0  0.1 0.3 0  0.8 0.3 0  0.8 0.1 0  0.25 0.2 0  0.248976 0.210065 0  0.245948 0.219718 0  0.241038 0.228563 0  0.234448 0.23624 0  0.226448 0.242432 0  0.217365 0.246888 0  0.207571 0.249423 0  0.197468 0.249936 0  0.187467 0.248404 0  0.17798 0.24489 0  0.169395 0.239539 0  0.162062 0.232569 0  0.156283 0.224265 0  0.152293 0.214968 0  0.150257 0.205058 0  0.150257 0.194942 0  0.152293 0.185032 0  0.156283 0.175735 0  0.162062 0.167431 0  0.169395 0.160461 0  0.17798 0.15511 0  0.187467 0.151596 0  0.197468 0.150064 0  0.207571 0.150577 0  0.217365 0.153112 0  0.226448 0.157568 0  0.234448 0.16376 0  0.241038 0.171437 0  0.245948 0.180282 0  0.248976 0.189935 0  1.1 0 0  1.1 0.41 0  0.1 0.2 0  0.45 0.1 0  0.45 0.3 0  0.55 0 0  0.275 0.1 0  0.275 0.3 0  0.275 0 0  0.55 0.41 0  0 0.205 0  0.825 0 0  0.825 0.41 0  0.275 0.41 0  0.1 0.15 0  0.1875 0.1 0  0.1 0.25 0  0.1875 0.3 0  0.132322 0.2 0  0.241426 0.253518 0  0.241426 0.146482 0  0.264574 0.17974 0  0.264574 0.22026 0  0.138434 0.187348 0  0.153372 0.150948 0  0.148413 0.164094 0  0.176495 0.136535 0  0.22768 0.143571 0  0.138434 0.212652 0  0.148413 0.235906 0  0.176495 0.263465 0  0.22768 0.256429 0  0.23125 0.3 0  0.24769 0.24094 0  0.23125 0.1 0  0.24769 0.15906 0  0.26253 0.193641 0  0.190482 0.137872 0  0.166753 0.146661 0  0.157737 0.244461 0  0.190482 0.262128 0  0.203107 0.261264 0  0.253635 0.22977 0  0.203107 0.138736 0  0.253635 0.17023 0  0.261028 0.206206 0  0.167707 0.251809 0  0.143629 0.224191 0  0.215302 0.2591 0  0.270465 0.245894 0  0.215302 0.1409 0  0.270465 0.154106 0  0.284052 0.202587 0  0.14375 0.3 0  0.209375 0.3 0  0.225966 0.278501 0  0.209375 0.1 0  0.225966 0.121499 0  0.211613 0.273759 0  0.211613 0.126241 0  0.143629 0.175809 0  0.1 0.175 0  0.133484 0.164832 0  0.144491 0.249539 0  0.1 0.225 0  0.133484 0.235168 0  0.3625 0.3 0  0.25691 0.253381 0  0.25691 0.146619 0  0.277205 0.188698 0  0.184724 0.275712 0  0.237372 0.268285 0  0.184724 0.124288 0  0.237372 0.131715 0  0.197578 0.273149 0  0.193656 0.286994 0  0.197578 0.126851 0  0.193656 0.113006 0  0.122953 0.187671 0  0.118362 0.153758 0  0.155372 0.258107 0  0.122953 0.212329 0  0.118362 0.246242 0  0.276394 0.27264 0  0.276394 0.12736 0  0.280965 0.170013 0  0.253125 0.3 0  0.14375 0.1 0  0.253125 0.1 0  0.269489 0.26014 0  0.269489 0.13986 0  0.303639 0.184297 0  0.165625 0.3 0  0.134742 0.273113 0  0.257831 0.274737 0  0.255279 0.128499 0  0.3625 0.1 0  0.165625 0.1 0  0.162031 0.132368 0  0.134955 0.126405 0  0.149334 0.125568 0  0.142936 0.139597 0  0.12695 0.140259 0  0.242514 0.285501 0  0.242514 0.114499 0  0.1 0.125 0  0.117483 0.12555 0  0.11154 0.139776 0  0.121875 0.1 0  0.109143 0.1125 0  0.126805 0.114 0  0.220313 0.29129 0  0.351562 0.287369 0  0.207222 0.2866 0  0.220312 0.10871 0  0.1375 0 0  0.20625 0 0  0.207222 0.1134 0  0.11722 0.17118 0  0.1 0.1625 0  0.0778409 0.16875 0  0.0862762 0.15625 0  0 0.15375 0  0 0.1025 0  0.11722 0.22882 0  0.1 0.2375 0  0 0.3075 0  0.0862762 0.23125 0  0.0598995 0.222547 0  0.0860223 0.2125 0  0.289584 0.181469 0  0.300267 0.16446 0  0.163832 0.269071 0  0.149597 0.273325 0  0.1 0.275 0  0.268498 0.285953 0  0.31875 0.3 0  0.294154 0.254672 0  0.296875 0.3 0  0.293558 0.271845 0  0.285095 0.286799 0  0.324298 0.264316 0  0.307866 0.263745 0  0.317093 0.234901 0  0.315485 0.281219 0  0.316547 0.250625 0  0.344693 0.243731 0  0.331592 0.251147 0  0.35129 0.270663 0  0.338689 0.263683 0  0.340625 0.3 0  0.249849 0.264383 0  0.265097 0.11422 0  0.284688 0.156136 0  0.242188 0.324017 0  0.0856613 0.2625 0  0.132812 0.0612217 0  0.264062 0.0612217 0  0.198437 0.07598340000000001 0  0.0860223 0.1375 0  0.0794526 0.191089 0  0.285228 0.140397 0  0.298655 0.148737 0  0.31875 0.1 0  0.327335 0.15374 0  0.296875 0.1 0  0.312289 0.155283 0  0.313348 0.135607 0  0.321802 0.173916 0  0.298433 0.134116 0  0.112124 0.2625 0  0.127526 0.259083 0  0.121875 0.3 0  0.0682687 0.241503 0  0.1 0.2875 0  0.117762 0.28125 0  0.107813 0.3 0  0.103906 0.313849 0  0.0778409 0.28125 0  0.1375 0.41 0  0.0862762 0.29375 0  0.08886860000000001 0.24375 0  0.307812 0.338778 0  0.307812 0.292227 0  0.33216 0.279164 0  0.387888 0.266414 0  0.264063 0.31948 0  0.110937 0.07598340000000001 0  0.242188 0.07598340000000001 0  0.319914 0.11839 0  0.340625 0.1 0  0.334448 0.133793 0  0.329687 0.108539 0  0.346259 0.118491 0  0.360334 0.173636 0  0.327539 0.205033 0  0.132812 0.288712 0  0.362436 0.278836 0  0.368105 0.259418 0  0.4125 0.41 0  0.329687 0.324017 0  0.329687 0.292306 0  0.285938 0.318952 0  0.417187 0.338778 0  0.324481 0.14148 0  0.351562 0.106771 0  0.40625 0.1 0  0.341028 0.168342 0  0.319221 0.190479 0  0.335292 0.184501 0  0.305563 0.20794 0  0.220313 0.31948 0  0.132812 0.332772 0  0.0865876 0.311259 0  0.0598995 0.302453 0  0.0906541 0.343255 0  0.353543 0.255837 0  0.36574 0.237633 0  0.405007 0.254279 0  0.275795 0.352123 0  0.4125 0 0  0.35493 0.137394 0  0.366563 0.120618 0  0.35917 0.205246 0  0.198438 0.318952 0  0.0626109 0.263892 0  0.40625 0.3 0  0.354809 0.155936 0  0.386512 0.146872 0  0.373101 0.159939 0  0.384375 0.1 0  0.343394 0.19929 0  0.350682 0.185683 0  0.368101 0.189748 0  0.344016 0.221511 0  0.391108 0.213329 0  0.376279 0.204783 0  0.398843 0.182768 0  0.375804 0.222746 0  0.390665 0.196958 0  0.394004 0.23518 0  0.359883 0.222828 0  0.419908 0.204359 0  0.404243 0.204783 0  0.412615 0.224526 0  0.20625 0.41 0  0.165625 0.325257 0  0.0347982 0.244954 0  0.379558 0.247154 0  0.34165 0.147603 0  0.372264 0.136992 0  0.388988 0.121989 0  0.373437 0.108554 0  0.351562 0.31948 0  0.391367 0.16527 0  0.399572 0.223324 0  0.452011 0.227371 0  0.40877 0.239392 0  0.431491 0.237337 0  0.421224 0.250459 0  0.449619 0.262098 0  0.418865 0.276779 0  0.437063 0.252274 0  0.415673 0.263227 0  0.430988 0.266772 0  0.402767 0.273419 0  0.452967 0.244883 0  0.428125 0.3 0  0.408502 0.286186 0  0.384375 0.3 0  0.392267 0.285807 0  0.465927 0.219339 0  0.43489 0.283846 0  0.376424 0.286289 0  0.625 0.3 0  0.473533 0.205186 0  0.461713 0.255517 0  0.5375 0.3 0  0.465725 0.235405 0  0.44631 0.201425 0  0.471875 0.3 0  0.494307 0.227729 0  0.459448 0.206736 0  0.462294 0.180792 0  0.478933 0.227536 0  0.486793 0.21381 0  0.486322 0.251373 0  0.50065 0.215318 0  0.54005 0.175389 0  0.474633 0.189893 0  0.512916 0.208697 0  0.49531 0.199967 0  0.475889 0.175275 0  0.625 0.1 0  0.459311 0.153933 0  0.513645 0.242704 0  0.392892 0.248539 0  0.374815 0.271913 0  0.365974 0.14871 0  0.395312 0.109184 0  0.417061 0.123981 0  0.483196 0.277003 0  0.381967 0.179632 0  0.429898 0.219374 0  0.433473 0.206165 0  0.43149 0.181038 0  0.444208 0.215487 0  0.472985 0.247309 0  0.49375 0.3 0  0.475579 0.262714 0  0.49916 0.274293 0  0.501175 0.184809 0  0.514164 0.225681 0  0.543648 0.214977 0  0.5341630000000001 0.23481 0  0.527396 0.216171 0  0.5375 0.1 0  0.534548 0.202315 0  0.561545 0.192513 0  0.5494289999999999 0.201221 0  0.570923 0.218346 0  0.412582 0.149833 0  0.489327 0.264745 0  0.502439 0.254775 0  0.462391 0.271166 0  0.496775 0.241732 0  0.5294410000000001 0.268606 0  0.482812 0.291099 0  0.46879 0.285038 0  0.452663 0.284065 0  0.51789 0.257882 0  0.53408 0.252026 0  0.560142 0.243543 0  0.545708 0.243474 0  0.547532 0.229019 0  0.55282 0.265323 0  0.398971 0.153424 0  0.400349 0.135684 0  0.410135 0.168145 0  0.428823 0.161323 0  0.415266 0.183779 0  0.329687 0.0810483 0  0.395312 0.0612217 0  0.373437 0.318952 0  0.439062 0.324017 0  0.561816 0.229354 0  0.585029 0.239287 0  0.431827 0.139854 0  0.446796 0.168929 0  0.351562 0.07598340000000001 0  0.395313 0.318944 0  0.54337 0.150762 0  0.460937 0.31948 0  0.418412 0.137529 0  0.428125 0.1 0  0.442783 0.152332 0  0.450742 0.134294 0  0.373437 0.0805201 0  0.384383 0.342558 0  0.482812 0.318952 0  0.429239 0.127457 0  0.444274 0.117405 0  0.426548 0.113815 0  0.49375 0.1 0  0.488954 0.113984 0  0.457973 0.121842 0  0.471621 0.137346 0  0.515625 0.325257 0  0.48125 0.41 0  0.417187 0.07598340000000001 0  0.496363 0.126778 0  0.479043 0.155715 0  0.439062 0.0805201 0  0.481795 0.126919 0  0.471875 0.1 0  0.489227 0.142159 0  0.515625 0.1 0  0.520062 0.147117 0  0.501244 0.161791 0  0.505431 0.112984 0  0.505344 0.14029 0  0.526563 0.119081 0  0.5181750000000001 0.131908 0  0.539868 0.136937 0  0.460937 0.108383 0  0.474242 0.114415 0  0.460937 0.0810483 0  0.487841 0.167168 0  0.526563 0.0612217 0  0.526563 0.106406 0  0.537619 0.112743 0  0.58125 0.1 0  0.559375 0.1 0  0.482812 0.08105569999999999 0  0.471883 0.0587655 0  0.570312 0.129396 0  0.548437 0.07598340000000001 0  0.504687 0.08105569999999999 0  0.49375 0.0470127 0  0.570312 0.112663 0  0.592798 0.12103 0  0.553986 0.12103 0  0.570312 0.0805201 0  0.48125 0 0  0.114787 0.2 0  0.160769 0.284765 0  0.175816 0.288361 0  0.162602 0.116048 0  0.154687 0.07598340000000001 0  0.176562 0.0805201 0  0.0598995 0.147547 0  0.307812 0.109924 0  0.291279 0.117157 0  0.278491 0.112989 0  0.285937 0.07598340000000001 0  0.307812 0.0805201 0  0.296928 0.196743 0  0.318141 0.218507 0  0.330208 0.227509 0  0.301397 0.225668 0  0.302706 0.241401 0  0.292574 0.21424 0  0.282762 0.230935 0  0.284351 0.244775 0  0.269553 0.23261 0  0.278572 0.217242 0  0.226924 0.342606 0  0.446928 0.185396 0  0.515625 0.3 0  0.504687 0.288879 0  0.515256 0.276534 0  0.529479 0.285328 0  0.58125 0.3 0  0.541969 0.272936 0  0.559375 0.3 0  0.556796 0.282529 0  0.543473 0.287206 0  0.581429 0.267774 0  0.566728 0.271171 0  0.570869 0.255585 0  0.577404 0.283865 0  0.603125 0.3 0  0.597531 0.28035 0  0.570312 0.338778 0  0.592188 0.292492 0  0.603513 0.256094 0  0.614063 0.286265 0  0.610329 0.27064 0  0.632708 0.251285 0  0.657223 0.261594 0  0.618789 0.257807 0  0.614188 0.22987 0  0.630935 0.265614 
[...]
<PointData  Scalars="p"> 
	<DataArray  type="Float64"  Name="p"  format="ascii">
0.00046816345965683653 0.00042691531529033235 -1.1296000611303301e-07 5.293446622942919e-08 0.0005208937120380495 0.0004961781105969341 5.932986682882951e-05 0.00012026589682476139 -0.00028564812666590097 -0.0003064093335488404 -0.0003352501731735941 -0.0003612347602825348 -0.0003956941326692329 -0.0004503213675624823 -0.0005458005699926161 -0.0006869597661453898 -0.0008001164500447516 -0.0009702112493430503 -0.0007341722006802748 -0.00034366888015370344 0.00020339956995798936 0.0008778021750286457 0.0014172531462059814 0.0017571713046985729 0.0017564986874567647 0.0014138122544642654 0.0008864669171678257 0.00022443241709705505 -0.0004105086062963155 -0.0006888013952881293 -0.0008665546096549572 -0.0007411979541607579 -0.0006187041530179629 -0.0004864579622007309 -0.00039352037971600334 -0.00034056891953017517 -0.00030587033165758575 -0.00029026381613043507 -0.0002826199878505968 0.00011729428400697479 5.423174108228371e-05 0.0011453399928735618 -0.0001958114805909105 -1.9593781807062072e-05 -6.644008648297796e-05 -0.0001389152264893074 -0.00020276679498135695 5.5851500409915644e-05 3.951182465933677e-05 0.0007462490280684892 0.00010365324475425376 6.751359002266289e-05 3.855041463746817e-05 0.0008205581831446276 4.4452128741197404e-05 0.0008073924774621852 2.0518489750123864e-05 0.001566912920455604 -0.0003784437062143385 -0.00032374311615457 -0.0002908559238478727 -0.00032739252783782675 0.001520224583554944 0.0003316044972441098 0.0007378399379944007 -0.00031903308102029196 -0.00039893433536249985 0.001525725973524598 0.0007222144252495656 -0.00034845233639288785 -0.0004548160753538467 -0.00014748435934860315 -0.00036464043496105015 -0.0001045365895080545 -0.0003122189978688593 -0.0002909510102014477 -0.0005718487140777038 -0.0001831013576827157 0.0001898746004638366 -0.0006401442567983628 -0.0006436692695260729 -0.0003452834654860912 -0.0005814103163742408 -0.00029812289144649236 -0.00030357106846027156 -0.00025559210810934625 0.0011706301204719284 -0.000542871469839933 -0.0003494249882124611 -0.0004806501161161798 -0.00028308605957436225 -0.0003063556085641963 0.00033072242319117013 -0.0001107520028984247 -0.0003378582960898089 -3.822512194391004e-05 -0.00027335737158885295 -0.0004256769129045959 -0.00037054375200511186 0.0011730541808118327 0.0010271113112524997 0.001025333384596717 0.0005334890954416983 0.0010399332221028281 0.0010314547779649516 -0.0001951013750726493 -0.00035131742005261587 -0.00029403361172046234 -0.00029196571727223053 -0.00024140701289472366 -0.0003902127008023866 -0.00020432168032235464 -0.00033420036578126936 -0.0003788247606406854 -0.00014579324808453086 -0.0003142854187533411 -9.95589509214414e-05 0.001353465461364296 0.0008807968142128184 0.0002443573275665946 0.0013462610026033662 0.0008715254568584296 -0.0003312803365579767 -0.0002529044959315262 -0.0002853301213355168 -0.00019216309616226212 0.0003542685865414767 -0.00012123196947207637 -0.00034888780844101285 -0.0002749884997414893 -0.0002890723542509627 0.00017633555952935423 0.0005022694681310971 -0.0003397037770979147 -0.0002697675613301642 -0.00018918902941018965 0.00022852343310964055 0.0001334065836424999 0.0005037507552210262 0.00035627212701877975 0.0004410245970941209 0.000656552699106037 -0.00027540945268677555 -0.00021223317712619973 0.0006338389136600101 0.000597966690066288 0.0007195795666376319 0.0004638724109459676 0.0005481175213088378 0.0004974343882764099 -0.00019719093762279335 -0.0002624786076465139 -0.0002407321061303745 -0.0001513146623536824 0.0003913551464824965 0.00022187099418419757 -0.00017237772020123134 0.0010905532685697836 0.000921357354057346 0.0008830135175588861 0.0008299836941978008 0.0006858402162190408 0.0005514264756848605 0.00108264717282003 0.000932178498773293 0.0005076359156098081 0.0008955468856067587 0.0008341272834108807 0.0009930275844463887 -0.00028844498240273095 -0.0002728431720639674 4.2936425960988883e-05 0.00030327418571821665 0.000617749344022702 -0.0002830828010125168 -0.00022253954306514334 -0.0003692031698359205 -0.00022856932793059612 -0.00035326482354140087 -0.00028797199249769306 -0.0003703540111802035 -0.0003672158566372686 -0.0003680481555316003 -0.00032085387209066597 -0.00037760679602359605 -0.0003666907574037856 -0.00037697765313892805 -0.00032467960884425195 -0.00035704571680189 -0.0002341665612407482 -0.00035712283213083134 -0.00021373457486681136 -0.0002745836809111103 -2.7618926350207356e-05 0.0007121286897172467 0.0003835113771365014 1.9799112673191626e-05 0.00015149513589688245 0.0007054614750039023 0.0009579600301207139 -0.00026188132979601303 -0.0002608467321091366 -0.00016205820323503058 -0.0002520591379287597 -0.00015929044396478117 -0.00025878982975432725 -0.0002447607230758987 -0.0002724016164433202 -0.00024830118582454795 0.000690808125422069 0.0006415465489789467 0.00044082220335702897 0.0007832397958942763 0.0005600459862000365 0.0005363614334391105 0.0004742482412504803 0.00044427643783214886 0.0005916826770484769 0.000344557983331717 0.0005393133222331946 0.0008381804931177867 -8.42596845994922e-05 -0.0002735278777266783 -0.00032305042515882955 -0.00023211743173018416 -9.787957202556075e-05 0.00045056207185367373 2.1081474119230645e-05 -0.00022111633199000056 -0.0001796977683105291 -0.00023821783545096772 -0.00019673875196773996 -0.00022881658329338515 -0.0002659546949072928 -0.00031580269343808637 0.0004156720846492714 -0.00027586145256973654 -0.0003092025270960788 -4.6939479857967664e-05 -0.0001311785828075623 -0.00027308885450702097 -0.00012892356074076307 -6.282533408918844e-05 -0.00024308712248391948 -0.0002004017498442024 -0.0002061649467243778 -0.00026153450913839665 -0.0002933114653200222 -0.00028085341987090493 -0.0003208740615024125 -2.044915916249091e-05 0.0003552162327920389 0.000480843256152617 0.000521051944415504 0.0004126132843922844 -0.00034826845955243364 -0.0003296430384308787 -0.00018827138020942116 3.648993082870306e-06 -8.875574562661653e-05 -0.00024719195510343884 -0.00024010241491732688 -0.00030212475571926405 8.802153738193079e-05 0.000669859687031605 -0.00011039786676238895 -0.0002540873414655912 -0.0002800685066301615 -0.0002661258085034881 -0.00020126161231871553 -0.000300538551475648 -0.0002781880627723491 -0.00027846362175282653 -0.00034018836957171834 -0.0002670284117782533 -0.0002861226968576713 -0.0002771605189817781 -0.00030232521156743674 -0.00027183256744283947 -0.0002534468890346511 -0.0003266282943354204 -0.00023095805453812686 -0.0002524776609726583 -0.000207320534123813 0.00019969624521058165 0.00022359388223068354 0.0006989215174283943 -0.0002917312281370096 -0.00024654882811020256 -0.0002621375784103816 -0.00026460062230975937 -0.00022230783937694416 -0.00014751252360200776 -0.0002828357770497608 -0.0002455584579923473 -8.135021798059738e-05 -0.00019643423547373212 -0.00011685969581000854 -0.00012864594734937477 -1.154683572532591e-05 -0.00010107914738686267 -6.50634364173411e-05 -0.0001309410674837646 -6.988206633736317e-05 -0.00016323439949524266 -2.5521400805178555e-05 -6.390064796710389e-05 -0.0001268376148127934 -0.00016580182395753798 -0.00017179764077824143 -8.544301254899171e-05 -4.679360649627126e-05 -0.0002188014127920494 1.198620745250482e-05 -0.00014653630809427544 1.6330153360594973e-05 4.3708204744025176e-05 -1.7444286526227994e-05 -0.0002101633743155132 1.310124760213987e-05 9.741574917645235e-06 -0.00016380896235051795 -0.00028029574134834216 -1.4132847081580382e-05 -7.326279712410334e-05 6.390896870979708e-05 -3.773516238862115e-05 -4.8620051373471075e-05 -0.00022260235125176354 -5.083677004304928e-05 -0.00013270317001129903 -0.0002735355754367682 7.871007076971304e-05 -0.00032732585784470527 7.33397789642121e-05 -0.0002421235158053594 -0.00026009374388138735 -0.00025823085590024486 -0.0002344005723300883 -0.00028868315643951724 5.254822107930096e-05 -0.00027354460560700185 -0.00017234820666444994 -0.00020852397512620172 -0.00029220315821683557 -0.00014957050274082536 3.214891898949875e-05 3.651707140098061e-05 5.031450040214833e-05 6.638997431985872e-05 -0.00017885630783704491 3.0106137659993738e-05 2.3096934071475858e-05 6.523342473982144e-05 8.13163433715662e-06 -5.6273963297367344e-05 -2.7327069240022384e-05 2.102645842605134e-05 2.601926554719908e-06 3.9775809596451746e-05 -0.0003138858455527124 6.673958345176474e-05 7.701404402224554e-05 2.3741289434802858e-05 6.129064014066447e-05 6.432441060107037e-05 3.6253808471202826e-05 2.440808707653925e-05 -5.1903343501479694e-06 8.120120063642709e-05 7.245540640970748e-05 4.6112206542320277e-05 6.081387056957154e-05 5.094497166851639e-05 4.040191611048031e-05 -0.0002961883944271728 -0.00029711462159138217 -0.0003013025347260576 -0.0003267227098718338 -0.00027971300555483015 -0.00011965219215279408 -0.00010794393921180945 -0.00013597010440239785 -4.361960316082336e-05 4.56133559964249e-05 1.098683984191764e-05 -0.0003273855907295176 -0.0003188585868331075 -0.00011962688382405674 -0.00010379931256413061 -2.5958040741671834e-05 -1.1350069058324544e-05 -0.00031174075671590426 -0.00021357717071232072 -0.00033515168819180574 -0.0003081503192893697 -0.00014399923269766953 -8.332577124698918e-05 1.0361066992754698e-05 -0.00030127749212116855 -0.0002591966201821927 -0.00026568510738807493 -0.00013782980845338438 -0.00017859936588981719 -0.0002627044516590676 -0.000278991266485645 3.469173700172416e-05 -1.1223224918985779e-05 -0.00013186404872035854 -0.000179172887045614 -0.00028311126714119676 -0.00015582464807720124 -0.0002250532879193634 -0.0001699413503953276 -0.00023601006266205828 -9.323604409850374e-05 -0.0001207906130826095 -0.00021150545192084722 -0.00012840856269878277 -0.00017345472014795608 -8.148146848990758e-05 -0.00011618395191147592 -3.582086146829613e-05 -0.00021631190712336743 -0.00020509979121047724 -0.00014955289527714258 -0.0002540375999039229 -7.699187390532412e-05 -7.903886813143605e-05 -4.85003923660469e-05 1.877683756181724e-05 -1.610277897620758e-05 -0.00011495537359803853 -0.0001103618544096478 4.8069966578973405e-05 -5.054251733092535e-05 -0.00010596743489633205 -8.518260141526733e-05 2.2922527143041442e-05 7.801444177455622e-05 -4.376052190773971e-06 -2.710294373537053e-05 -9.86431723133444e-05 0.0013148199221246475 0.0001856820033862511 1.578839242230302e-06 0.00017672461560245287 0.00031986788636834547 0.00021766552317256245 0.0007294755882786125 -0.00019849827555054616 -0.00021563172238357763 -0.00019958014340224582 -5.996868051510589e-05 -9.696397943152562e-05 -0.0003026536189139003 -0.00034079002261411327 -0.00035776769773983227 -0.0003491930268626486 -0.00036821760430287846 -0.0003267574314144683 -0.0003470997773185637 -0.00035876203517878615 -0.0003444433559051676 -0.0003259391493102931 8.00053592931869e-05 -0.00027499768080313134 4.192981397237255e-05 5.174733422789219e-05 6.318644137125546e-05 5.0296779142526255e-05 2.7248358192284922e-05 4.827362092757539e-05 3.196466096086199e-05 2.980417572586063e-05 4.000472078413095e-05 5.449787599864402e-07 1.9330359747676313e-05 1.887789612881274e-05 1.3040406095497125e-05 1.563189082643788e-05 -6.474289350757162e-06 5.253837598239824e-05 1.026411190259708e-05 -2.4787546005522904e-05 -2.789276132765868e-06 -2.2162037784517027e-05 -3.857697608997946e-05 -1.834143986537069e-05 -3.373094487592676e-05 -1.3634422436189772e-05 -2.9067294067716912e-05 -3.3506051155747736e-05 7.86086658195869e-06 -2.2085338370023267e-05 1.0385104136006438e-05 -9.200005476642328e-06 -1.4570155672171554e-05 9.451627045255178e-06 9.487740859731846e-07 4.457833727572256e-05 4.1756721995090454e-05 -1.3944927212189007e-05 -4.408773569313138e-06 6.17120571561522e-06 2.403687893345504e-05 1.6337601569162684e-06 3.4423401437932455e-05 2.9405753437053886e-06 9.46695727834626e-06 -6.206324828539777e-06 9.26022507634185e-06 2.202823366863367e-05 2.8708854904482545e-06 -1.539015748594457e-05 4.213010134481332e-05 -3.421305870107288e-05 -2.428331170503186e-05 2.6823102880641947e-05 3.1600490789584526e-05 0.0001126393261180209 -1.8044695379367926e-06 4.4534619900165356e-05 3.224821886119566e-05 8.962432420333316e-05 4.440133851270233e-05 6.504577126123398e-05 2.890948197426674e-05 2.4689281512511026e-05 1.838401268472015e-05 6.771975810946567e-05 5.932643416126799e-05 4.7609657332885725e-05 3.7980526038557385e-05 4.4612333421360134e-05 8.944559449590771e-05 0.00012443289059169726 7.217169785372569e-05 9.349136765148586e-05 7.026783353182128e-05 9.716338088424513e-05 9.83882262224543e-05 0.00011863098739698252 4.752761411160411e-05 5.522696292925053e-05 7.26822426120131e-05 7.951675839394324e-05 0.00010203721199649111 8.386055591487108e-05 9.54281709233698e-05 6.112129346459721e-05 1.680299660510833e-05 1.505324199114119e-05 2.2845951187773625e-05 2.3535811195038135e-06 -1.0913533923548705e-05 7.428112340284221e-05 0.00010948257447950998 0.00011204951025742355 0.0001298012155141121 2.7829202141720254e-05 1.5611531956035197e-05 -1.7471409219930556e-07 -2.4264080717095946e-06 0.0001032488238397496 0.00011606241940957142 0.00012725473274098595 0.00012418253466767659 1.0378997023713687e-05 2.575005330718958e-05 -4.550098676781549e-06 0.00011442101170347315 0.0001222413676221127 0.00010753217854172782 0.00012493577522696735 0.0001211033798487826 0.0001018425504788009 0.00012051186041382714 0.00012083915860601935 0.00013226959462985335 0.00012758658342331883 9.458597258058631e-05 0.0001308180731811578 8.666493197476865e-05 6.107747697408233e-05 0.00013884817561920696 9.03757454273552e-05 0.00011465538183365556 9.385727377114995e-05 0.00010569779803703213 6.218294160357757e-05 5.1716101014642605e-05 9.525425094729131e-05 0.00012414685478733027 9.443267857675537e-05 0.00016146940825457275 0.00010829340536335986 0.00012095303706450578 0.00013765320982379214 0.00015526934226966493 0.00014402950653205098 0.00016187092941432753 0.00011581430384388512 0.00016007072773233552 0.0001550372429590806 0.00014040739767912804 0.00016873736429237152 0.00017125916805713526 0.00016394716055871764 0.00013838790900287638 0.00016138876273266912 0.00017368123563836103 0.00015628544084287903 7.585220627522432e-05 0.00012927174615493092 0.00010931912446316556 0.00010864511511489677 4.302186737427176e-05 0.00014311769391623944 0.00010909244892408387 0.00014254277255219637 0.00012649842942927535 7.261479880728946e-05 0.00013572081437725797 0.00015667074095122648 0.00016114999291894032 9.878125058141798e-05 0.00012073302002226585 0.00014584387912808076 0.00011385039741334917 5.040337153886966e-05 9.827169201375222e-05 6.809726903810433e-05 0.00016219468597326162 0.0001636485989486865 0.00016074013344047672 0.00013762189162787374 0.0001484632795184624 0.00010674031163133894 5.041969178522888e-05 6.61296462446594e-06 8.148881381599508e-05 6.195526460421556e-05 1.808792412457486e-05 1.8064443496000566e-05 1.1227802157380172e-05 0.00013947261649130765 0.0001368411308207429 0.00014326402921723447 9.53648080949094e-05 0.00014767300889457967 0.00011344969267074264 2.767119832786679e-05 -1.3416830895105893e-05 4.460038516488815e-05 7.022499792179649e-05 0.0001450915796054469 8.46985812948056e-06 0.00012176613886060249 0.0001365737230761698 0.0001436075670097352 0.00010695359681265067 0.000135518009857376 0.00013946140559793166 0.00013393211024599483 0.0001330912267936205 0.00012527338598599595 0.0001440476714409879 9.608860754393005e-05 0.00015166436949453973 0.0001097318712489765 0.00011524474647874341 6.251373062040744e-05 0.00013517915327871793 0.00012835802991461017 0.00011844264684156043 9.529410299438152e-05 0.00012186378708676997 0.00011907053704353186 0.0001081687138006719 0.0001373549680785219 0.00011166268709448618 0.00010895139626701128 0.00011718256734740006 0.00011456693328847301 0.00012782210042257947 0.00013887672784166185 0.00014701018751226946 -4.6065406692184344e-05 -3.183894166057956e-05 9.95867969890293e-06 -0.00010358306326342289 -0.0001497918444445297 -0.00015204464134054436 -7.78245311626136e-05 -9.645277823105561e-05 -4.834411913166161e-05 -1.1250521761268731e-05 -2.0601191355702735e-05 -0.00010069745567265773 7.104658212995642e-05 0.00028727163323749355 -6.119483684686678e-05 1.6696220239172434e-05 -1.365787794345885e-05 2.634677169782836e-05 1.712627914568009e-05 8.177458340539191e-05 3.694035910266588e-05 2.6691475814212444e-06 -6.686930993552748e-05 -1.651487535690164e-05 0.00012658340339771168 1.805163141172376e-05 3.295035445738922e-05 -1.261138274146639e-05 8.69798430831224e-05 7.176615835967775e-05 6.491590014736955e-05 4.249891170501863e-05 3.424094769656661e-05 3.346457149779272e-05 -5.026975698081723e-05 0.00014788534007677 0.00010919269530157323 -7.798018432636644e-05 0.00011774472708799095 1.5204874630282181e-05 2.861235662130508e-05 0.00010204004979139664 4.8792537356080364e-05 0.000583153701535301 0.0004532744800301929 4.0892511592585204e-05 0.00012803328085205957 4.632181965090384e-05 3.3657124893335745e-05 -8.519790318146396e-05 -7.652380935804625e-05 -3.491396699073561e-05 -5.673956672404644e-05 3.253610141103912e-06 1.1405730697475792e-06 -6.92120061593313e-05 0.0002220869950535295 0.00045654505058049415 0.00041375346848479815 0.000430386449500212 -6.068634284652376e-05 -8.763028989809982e-06 0.00043306511207855125 0.00041419458211579697 -1.4223510847273997e-05 0.0006554507057880841 -7.8113344229365e-05 -5.1905922436641446e-05 1.4065715306204326e-05 2.514496389473698e-05 0.000297443602004584 0.0004752061063252224 -7.480908265762904e-05 -5.770360671255207e-06 4.703109909678314e-05 0.00036606915622354355 -6.500034106908727e-06 0.0005818510572946708 0.00015809038385358767 0.0001417210511865774 8.633979575595699e-05 0.0004816322036747027 8.724996085660177e-05 3.9313204287787974e-05 0.00013854701483157533 0.00014210011369976305 0.00012259957727087673 -2.0999514069157807e-05 8.738809014801305e-05 4.758329017107661e-05 4.458829451850478e-05 3.8497235878503376e-05 0.00013938305661743736 6.303927115265184e-05 0.00041813399191238047 -5.414193926615415e-05 1.882901770212295e-05 0.00038880531348734436 0.0005900390011929964 4.634551203631814e-05 2.273564979795172e-05 -2.9762245146542654e-05 2.0414927693414216e-05 0.0007660462591257495 0.00047748230689385293 1.6434556180933278e-05 0.0006726281125788553 3.3340884345879176e-05 7.142834040564545e-05 0.0005024629942876282 8.353165270637617e-06 4.1756031230737626e-05 5.2079259112818015e-05 0.00046424584244678747 6.469402335942536e-05 0.0004693262282780936 0.0004642431514847252 6.772160617869629e-05 8.914607840826343e-05 0.00010504998701268177 3.530886155979222e-05 5.452573984351673e-05 6.383812984482919e-05 6.0003199394363144e-05 0.00010838450421032467 9.463805298919369e-05 0.00010222105187671062 0.00010570216951915072 8.493968297604676e-05 0.00010068121092630628 0.00010824601336373288 8.089047645935266e-05 0.00011173680440878667 6.86953917540531e-05 9.625969780958961e-05 9.398234039276454e-05 0.00011062530968022334 0.00010885593995199399 4.550343389157125e-05 7.2645036496137e-05 0.00013686573194494745 0.00010026997931657389 0.00011260828663045914 8.503563655067379e-05 0.00011797066936656414 0.00013212696423762495 0.000125398299804953 0.00014945846596426489 5.475556528060694e-05 2.8171897288060946e-05 1.0413427857249388e-05 0.0002716113908641631 0.00043014394718157007 0.0003958356940016888 0.0004513562075078104 -3.627283788396503e-05 -5.474926514398333e-05 3.294949940432846e-05 0.00043350165572650254 0.0003186004593990635 0.00012595759122652637 0.0001206113971298256 0.00039719240585387507 -1.0608975731272073e-05 0.0007612043869753498 0.000733344099566976 2.8131352993556594e-05 3.3266462660459826e-05 0.0001067199992288994 6.955689156324381e-05 7.278698468936781e-05 0.00010618969951157465 0.00011875022014585987 9.324272204163693e-05 8.057732394777479e-05 0.00011386071966019158 7.856908606886207e-05 9.248540002727036e-05 0.00010977936329274758 0.00012891623726843176 5.093726039172884e-05 4.812630672693765e-05 3.686078745282912e-05 7.73858069651449e-05 3.851230092750218e-05 5.1950438184475706e-05 5.1462