<?xml version="1.0"?>
<VTKFile type="UnstructuredGrid"  version="0.1"  >
<UnstructuredGrid>
<Piece  NumberOfPoints="1289" NumberOfCells="2413">
<Points>
<DataArray  type="Float64"  NumberOfComponents="3"  format="ascii">0 0 0  0 0.41 0  2.2 0.41 0  2.2 0 0  0.1 0.1 0  0.1 0.3 0  0.8 0.3 0  0.8 0.1 0  0.25 0.2 0  0.248976 0.210065 0  0.245948 0.219718 0  0.241038 0.228563 0  0.234448 0.23624 0  0.226448 0.242432 0  0.217365 0.246888 0  0.207571 0.249423 0  0.197468 0.249936 0  0.187467 0.248404 0  0.17798 0.24489 0  0.169395 0.239539 0  0.162062 0.232569 0  0.156283 0.224265 0  0.152293 0.214968 0  0.150257 0.205058 0  0.150257 0.194942 0  0.152293 0.185032 0  0.156283 0.175735 0  0.162062 0.167431 0  0.169395 0.160461 0  0.17798 0.15511 0  0.187467 0.151596 0  0.197468 0.150064 0  0.207571 0.150577 0  0.217365 0.153112 0  0.226448 0.157568 0  0.234448 0.16376 0  0.241038 0.171437 0  0.245948 0.180282 0  0.248976 0.189935 0  1.1 0 0  1.1 0.41 0  0.1 0.2 0  0.45 0.1 0  0.45 0.3 0  0.55 0 0  0.275 0.1 0  0.275 0.3 0  0.275 0 0  0.55 0.41 0  0 0.205 0  0.825 0 0  0.825 0.41 0  0.275 0.41 0  0.1 0.15 0  0.1875 0.1 0  0.1 0.25 0  0.1875 0.3 0  0.132322 0.2 0  0.241426 0.253518 0  0.241426 0.146482 0  0.264574 0.17974 0  0.264574 0.22026 0  0.138434 0.187348 0  0.153372 0.150948 0  0.148413 0.164094 0  0.176495 0.136535 0  0.22768 0.143571 0  0.138434 0.212652 0  0.148413 0.235906 0  0.176495 0.263465 0  0.22768 0.256429 0  0.23125 0.3 0  0.24769 0.24094 0  0.23125 0.1 0  0.24769 0.15906 0  0.26253 0.193641 0  0.190482 0.137872 0  0.166753 0.146661 0  0.157737 0.244461 0  0.190482 0.262128 0  0.203107 0.261264 0  0.253635 0.22977 0  0.203107 0.138736 0  0.253635 0.17023 0  0.261028 0.206206 0  0.167707 0.251809 0  0.143629 0.224191 0  0.215302 0.2591 0  0.270465 0.245894 0  0.215302 0.1409 0  0.270465 0.154106 0  0.284052 0.202587 0  0.14375 0.3 0  0.209375 0.3 0  0.225966 0.278501 0  0.209375 0.1 0  0.225966 0.121499 0  0.211613 0.273759 0  0.211613 0.126241 0  0.143629 0.175809 0  0.1 0.175 0  0.133484 0.164832 0  0.144491 0.249539 0  0.1 0.225 0  0.133484 0.235168 0  0.3625 0.3 0  0.25691 0.253381 0  0.25691 0.146619 0  0.277205 0.188698 0  0.184724 0.275712 0  0.237372 0.268285 0  0.184724 0.124288 0  0.237372 0.131715 0  0.197578 0.273149 0  0.193656 0.286994 0  0.197578 0.126851 0  0.193656 0.113006 0  0.122953 0.187671 0  0.118362 0.153758 0  0.155372 0.258107 0  0.122953 0.212329 0  0.118362 0.246242 0  0.276394 0.27264 0  0.276394 0.12736 0  0.280965 0.170013 0  0.253125 0.3 0  0.14375 0.1 0  0.253125 0.1 0  0.269489 0.26014 0  0.269489 0.13986 0  0.303639 0.184297 0  0.165625 0.3 0  0.134742 0.273113 0  0.257831 0.274737 0  0.255279 0.128499 0  0.3625 0.1 0  0.165625 0.1 0  0.162031 0.132368 0  0.134955 0.126405 0  0.149334 0.125568 0  0.142936 0.139597 0  0.12695 0.140259 0  0.242514 0.285501 0  0.242514 0.114499 0  0.1 0.125 0  0.117483 0.12555 0  0.11154 0.139776 0  0.121875 0.1 0  0.109143 0.1125 0  0.126805 0.114 0  0.220313 0.29129 0  0.351562 0.287369 0  0.207222 0.2866 0  0.220312 0.10871 0  0.1375 0 0  0.20625 0 0  0.207222 0.1134 0  0.11722 0.17118 0  0.1 0.1625 0  0.0778409 0.16875 0  0.0862762 0.15625 0  0 0.15375 0  0 0.1025 0  0.11722 0.22882 0  0.1 0.2375 0  0 0.3075 0  0.0862762 0.23125 0  0.0598995 0.222547 0  0.0860223 0.2125 0  0.289584 0.181469 0  0.300267 0.16446 0  0.163832 0.269071 0  0.149597 0.273325 0  0.1 0.275 0  0.268498 0.285953 0  0.31875 0.3 0  0.294154 0.254672 0  0.296875 0.3 0  0.293558 0.271845 0  0.285095 0.286799 0  0.324298 0.264316 0  0.307866 0.263745 0  0.317093 0.234901 0  0.315485 0.281219 0  0.316547 0.250625 0  0.344693 0.243731 0  0.331592 0.251147 0  0.35129 0.270663 0  0.338689 0.263683 0  0.340625 0.3 0  0.249849 0.264383 0  0.265097 0.11422 0  0.284688 0.156136 0  0.242188 0.324017 0  0.0856613 0.2625 0  0.132812 0.0612217 0  0.264062 0.0612217 0  0.198437 0.07598340000000001 0  0.0860223 0.1375 0  0.0794526 0.191089 0  0.285228 0.140397 0  0.298655 0.148737 0  0.31875 0.1 0  0.327335 0.15374 0  0.296875 0.1 0  0.312289 0.155283 0  0.313348 0.135607 0  0.321802 0.173916 0  0.298433 0.134116 0  0.112124 0.2625 0  0.127526 0.259083 0  0.121875 0.3 0  0.0682687 0.241503 0  0.1 0.2875 0  0.117762 0.28125 0  0.107813 0.3 0  0.103906 0.313849 0  0.0778409 0.28125 0  0.1375 0.41 0  0.0862762 0.29375 0  0.08886860000000001 0.24375 0  0.307812 0.338778 0  0.307812 0.292227 0  0.33216 0.279164 0  0.387888 0.266414 0  0.264063 0.31948 0  0.110937 0.07598340000000001 0  0.242188 0.07598340000000001 0  0.319914 0.11839 0  0.340625 0.1 0  0.334448 0.133793 0  0.329687 0.108539 0  0.346259 0.118491 0  0.360334 0.173636 0  0.327539 0.205033 0  0.132812 0.288712 0  0.362436 0.278836 0  0.368105 0.259418 0  0.4125 0.41 0  0.329687 0.324017 0  0.329687 0.292306 0  0.285938 0.318952 0  0.417187 0.338778 0  0.324481 0.14148 0  0.351562 0.106771 0  0.40625 0.1 0  0.341028 0.168342 0  0.319221 0.190479 0  0.335292 0.184501 0  0.305563 0.20794 0  0.220313 0.31948 0  0.132812 0.332772 0  0.0865876 0.311259 0  0.0598995 0.302453 0  0.0906541 0.343255 0  0.353543 0.255837 0  0.36574 0.237633 0  0.405007 0.254279 0  0.275795 0.352123 0  0.4125 0 0  0.35493 0.137394 0  0.366563 0.120618 0  0.35917 0.205246 0  0.198438 0.318952 0  0.0626109 0.263892 0  0.40625 0.3 0  0.354809 0.155936 0  0.386512 0.146872 0  0.373101 0.159939 0  0.384375 0.1 0  0.343394 0.19929 0  0.350682 0.185683 0  0.368101 0.189748 0  0.344016 0.221511 0  0.391108 0.213329 0  0.376279 0.204783 0  0.398843 0.182768 0  0.375804 0.222746 0  0.390665 0.196958 0  0.394004 0.23518 0  0.359883 0.222828 0  0.419908 0.204359 0  0.404243 0.204783 0  0.412615 0.224526 0  0.20625 0.41 0  0.165625 0.325257 0  0.0347982 0.244954 0  0.379558 0.247154 0  0.34165 0.147603 0  0.372264 0.136992 0  0.388988 0.121989 0  0.373437 0.108554 0  0.351562 0.31948 0  0.391367 0.16527 0  0.399572 0.223324 0  0.452011 0.227371 0  0.40877 0.239392 0  0.431491 0.237337 0  0.421224 0.250459 0  0.449619 0.262098 0  0.418865 0.276779 0  0.437063 0.252274 0  0.415673 0.263227 0  0.430988 0.266772 0  0.402767 0.273419 0  0.452967 0.244883 0  0.428125 0.3 0  0.408502 0.286186 0  0.384375 0.3 0  0.392267 0.285807 0  0.465927 0.219339 0  0.43489 0.283846 0  0.376424 0.286289 0  0.625 0.3 0  0.473533 0.205186 0  0.461713 0.255517 0  0.5375 0.3 0  0.465725 0.235405 0  0.44631 0.201425 0  0.471875 0.3 0  0.494307 0.227729 0  0.459448 0.206736 0  0.462294 0.180792 0  0.478933 0.227536 0  0.486793 0.21381 0  0.486322 0.251373 0  0.50065 0.215318 0  0.54005 0.175389 0  0.474633 0.189893 0  0.512916 0.208697 0  0.49531 0.199967 0  0.475889 0.175275 0  0.625 0.1 0  0.459311 0.153933 0  0.513645 0.242704 0  0.392892 0.248539 0  0.374815 0.271913 0  0.365974 0.14871 0  0.395312 0.109184 0  0.417061 0.123981 0  0.483196 0.277003 0  0.381967 0.179632 0  0.429898 0.219374 0  0.433473 0.206165 0  0.43149 0.181038 0  0.444208 0.215487 0  0.472985 0.247309 0  0.49375 0.3 0  0.475579 0.262714 0  0.49916 0.274293 0  0.501175 0.184809 0  0.514164 0.225681 0  0.543648 0.214977 0  0.5341630000000001 0.23481 0  0.527396 0.216171 0  0.5375 0.1 0  0.534548 0.202315 0  0.561545 0.192513 0  0.5494289999999999 0.201221 0  0.570923 0.218346 0  0.412582 0.149833 0  0.489327 0.264745 0  0.502439 0.254775 0  0.462391 0.271166 0  0.496775 0.241732 0  0.5294410000000001 0.268606 0  0.482812 0.291099 0  0.46879 0.285038 0  0.452663 0.284065 0  0.51789 0.257882 0  0.53408 0.252026 0  0.560142 0.243543 0  0.545708 0.243474 0  0.547532 0.229019 0  0.55282 0.265323 0  0.398971 0.153424 0  0.400349 0.135684 0  0.410135 0.168145 0  0.428823 0.161323 0  0.415266 0.183779 0  0.329687 0.0810483 0  0.395312 0.0612217 0  0.373437 0.318952 0  0.439062 0.324017 0  0.561816 0.229354 0  0.585029 0.239287 0  0.431827 0.139854 0  0.446796 0.168929 0  0.351562 0.07598340000000001 0  0.395313 0.318944 0  0.54337 0.150762 0  0.460937 0.31948 0  0.418412 0.137529 0  0.428125 0.1 0  0.442783 0.152332 0  0.450742 0.134294 0  0.373437 0.0805201 0  0.384383 0.342558 0  0.482812 0.318952 0  0.429239 0.127457 0  0.444274 0.117405 0  0.426548 0.113815 0  0.49375 0.1 0  0.488954 0.113984 0  0.457973 0.121842 0  0.471621 0.137346 0  0.515625 0.325257 0  0.48125 0.41 0  0.417187 0.07598340000000001 0  0.496363 0.126778 0  0.479043 0.155715 0  0.439062 0.0805201 0  0.481795 0.126919 0  0.471875 0.1 0  0.489227 0.142159 0  0.515625 0.1 0  0.520062 0.147117 0  0.501244 0.161791 0  0.505431 0.112984 0  0.505344 0.14029 0  0.526563 0.119081 0  0.5181750000000001 0.131908 0  0.539868 0.136937 0  0.460937 0.108383 0  0.474242 0.114415 0  0.460937 0.0810483 0  0.487841 0.167168 0  0.526563 0.0612217 0  0.526563 0.106406 0  0.537619 0.112743 0  0.58125 0.1 0  0.559375 0.1 0  0.482812 0.08105569999999999 0  0.471883 0.0587655 0  0.570312 0.129396 0  0.548437 0.07598340000000001 0  0.504687 0.08105569999999999 0  0.49375 0.0470127 0  0.570312 0.112663 0  0.592798 0.12103 0  0.553986 0.12103 0  0.570312 0.0805201 0  0.48125 0 0  0.114787 0.2 0  0.160769 0.284765 0  0.175816 0.288361 0  0.162602 0.116048 0  0.154687 0.07598340000000001 0  0.176562 0.0805201 0  0.0598995 0.147547 0  0.307812 0.109924 0  0.291279 0.117157 0  0.278491 0.112989 0  0.285937 0.07598340000000001 0  0.307812 0.0805201 0  0.296928 0.196743 0  0.318141 0.218507 0  0.330208 0.227509 0  0.301397 0.225668 0  0.302706 0.241401 0  0.292574 0.21424 0  0.282762 0.230935 0  0.284351 0.244775 0  0.269553 0.23261 0  0.278572 0.217242 0  0.226924 0.342606 0  0.446928 0.185396 0  0.515625 0.3 0  0.504687 0.288879 0  0.515256 0.276534 0  0.529479 0.285328 0  0.58125 0.3 0  0.541969 0.272936 0  0.559375 0.3 0  0.556796 0.282529 0  0.543473 0.287206 0  0.581429 0.267774 0  0.566728 0.271171 0  0.570869 0.255585 0  0.577404 0.283865 0  0.603125 0.3 0  0.597531 0.28035 0  0.570312 0.338778 0  0.592188 0.292492 0  0.603513 0.256094 0  0.614063 0.286265 0  0.610329 0.27064 0  0.632708 0.251285 0  0.657223 0.261594 0  0.618789 0.257807 0  0.614188 0.22987 0  0.630935 0.265614 
[...]
<PointData  Scalars="p"> 
	<DataArray  type="Float64"  Name="p"  format="ascii">
0.0004511609243336479 0.0004394042477185627 -7.089585151005716e-08 -7.214469476533395e-08 0.0005041406880645654 0.0005088114120304977 0.00010022085204772557 4.047377158013085e-05 -0.00028380189227264783 -0.0002880686482243963 -0.00030449481859008535 -0.00032447928241772486 -0.00035947198599564466 -0.00041279842228985437 -0.0005043644514056973 -0.0006417341311734727 -0.0007533594376898676 -0.0009205270062976651 -0.0006913866383998799 -0.00030705924408147426 0.0002341321915714698 0.0008994154648356849 0.0014302690784646214 0.0017598600125196125 0.001749188563877665 0.0013966606657549526 0.0008616378443792158 0.0001919535627588795 -0.0004498845651911538 -0.0007296015332165026 -0.0009107474407941071 -0.0007828591720272014 -0.0006583061016453684 -0.0005228769416599999 -0.0004267921576377946 -0.0003729822529990077 -0.0003388588451411674 -0.000317202611424913 -0.0002973750007146607 8.177404562253888e-05 8.903326775181348e-05 0.0011432212931366298 -0.00011430782020875114 -0.00016074331078947567 -1.602559008665095e-05 -0.00018466023224176912 -0.0001619464273252466 2.082610638716767e-05 -5.05832270732399e-05 0.0007447570897990819 3.565284157697284e-05 8.785815842891111e-05 5.944428193061386e-05 0.0008076035350511712 1.623888024218813e-05 0.0008163314836234117 4.489123079331654e-05 0.0015647917693578535 -0.00034390251148307073 -0.0003546192375222152 -0.0003131979032304438 -0.0003014949448040198 0.0015099679351617192 0.0003043339081368788 0.0007138678745345851 -0.000353465611581903 -0.00043306520721496383 0.0015317336217637986 0.0007429906141958884 -0.0003141484535422379 -0.00041625334616931994 -0.00011723141478778282 -0.0003313701690136482 -0.00013867902089567026 -0.00034183665005792463 -0.00029798825245354457 -0.0006107054953985477 -0.000216898968793189 0.0002178753049283785 -0.0005983136830245458 -0.0005996274680145492 -0.00031387437284150475 -0.0006208476855014874 -0.00032602027203803614 -0.00029351976501545035 -0.000221982342515396 0.001185375824327483 -0.000501044439473094 -0.0003073963843182135 -0.0005176438162540758 -0.00032253927719293386 -0.0003009247835448348 0.0003480985931251996 -8.281052156541522e-05 -0.0003022601778883844 -6.898960257371453e-05 -0.00030777017762774125 -0.0003884772258281896 -0.0004060153566484496 0.0011545170289600567 0.0010186988507167145 0.0010083075766390364 0.0005535327931239732 0.001044352363663648 0.0010447341996967909 -0.00018000743295114356 -0.0003146312877481959 -0.000327637605072239 -0.00030605835121459826 -0.00021036769224738817 -0.0003518329748072438 -0.00023641970061709174 -0.0003695157486805641 -0.0003443280947980964 -0.00011695170145518933 -0.0003479787045809444 -0.00013032535472318007 0.0013458638037592418 0.0008658572395510561 0.0002687925000064668 0.0013497130078059484 0.0008826971977662511 -0.00027637095700398806 -0.0003071583557761616 -0.00032169533112190343 -0.0001573369684883455 0.0003327705335813755 -0.00016014961562234095 -0.0003014736103342493 -0.0003196704263026911 -0.0003179747985557242 0.00019730917726695226 0.0005188220244205736 -0.0002957306926649702 -0.00030845650084227903 -0.00022547247054987969 0.0002039077293365151 0.0001058528624155666 0.0004834279072280773 0.0003330344561380612 0.0004177271769119185 0.0006380553581326305 -0.00023948272468550118 -0.00024909583507830665 0.0006183575009751683 0.0005804478673598112 0.0007038655516360727 0.0004450055263380008 0.0005309327347318548 0.00047830073302733927 -0.00016645123060909678 -0.00021399055873107733 -0.00020909579441508636 -0.00018428549060084173 0.0003706843495414071 0.00019354024449658215 -0.00020484600719671245 0.001079288127886344 0.0009104149901671559 0.0008748801884262981 0.0008193614366485806 0.0006765615541120631 0.0005368040359523737 0.001089980881701807 0.0009389618744609921 0.000518146228662197 0.0008999847618181138 0.0008358276897052527 0.000993583191202836 -0.0003159157644284898 -0.0003300893321579006 6.924091517584797e-05 0.00032401536155679555 0.0006291248196885315 -0.00023736521101887256 -0.00017604105983385355 -0.000297109660061989 -0.00018069747957519125 -0.0002806353518603076 -0.00023284389285698083 -0.000272526213994049 -0.00027995358053868363 -0.00029289065501192845 -0.00024381115975099637 -0.00028544006615560864 -0.000270726449767145 -0.00027571382812395273 -0.0002472008626344098 -0.00026077692865178497 -0.0001923499766928755 -0.0003192528001199564 -0.0002589495343490829 -0.0003255806198538466 -9.326778127653278e-07 0.0007209563826818641 0.0003634105191273949 -1.60931074789142e-05 0.0001239154303189607 0.0006922640297606206 0.0009541963902500817 -0.0003214598126940689 -0.0003312329466127382 -0.00021953030836293526 -0.0003435990778383511 -0.00021471494700658688 -0.00033795846016322227 -0.0003344651875547517 -0.0003312854010542734 -0.00032311738849404937 0.0007029488330691947 0.0006565147870245878 0.0004553381551716112 0.0007883580715900252 0.0005719328299648424 0.0005502644069449957 0.00048757660938196214 0.0004574487815268722 0.0006018654676717243 0.0003600734323282714 0.0005505628651143373 0.0008449151929630418 -6.028474191867831e-05 -0.00021337949852055072 -0.00024538126771202673 -0.0002330033524501132 -6.735143584101971e-05 0.00043250717807367316 -1.2608779471553822e-05 -0.0002993447104921623 -0.00023475465344245585 -0.0003345662712029245 -0.0002628833322486578 -0.00030187295829057034 -0.00032909006276793916 -0.0003025099901382201 0.00043203837973825043 -0.00023285903154367823 -0.00024550335610351874 -6.885036114827216e-05 -0.00010730911211744094 -0.00021579677375198133 -9.528510950042279e-05 -0.00010286906521765352 -0.0003382930325327216 -0.00025216013213612 -0.00018216354989512436 -0.00033853193279855215 -0.0003150062801354163 -0.0003215436631047551 -0.0003029722586786612 5.409492082710922e-06 0.0003703212708139139 0.0004928357113423435 0.0005317748565244364 0.00042553650395178646 -0.0002578006512646696 -0.00025896268979015843 -0.0002315522609604091 2.6542399671756032e-05 -0.0001047611262486738 -0.0003350848764799921 -0.0002906665194100209 -0.0002898654477921695 0.0001103877033290841 0.0006774692341367008 -0.00017434053917982472 -0.00034319560515352714 -0.0003129970416476344 -0.0003306474999028213 -0.00020996574835442376 -0.00030381327405280335 -0.0003179779064571504 -0.0003045122424343802 -0.0002838838823365039 -0.00025734201003957006 -0.0002788106849153124 -0.00028112291509392416 -0.0002613366573540218 -0.00027479820158316773 -0.00024157575634626058 -0.0002730212479582634 -0.00023280321811893281 -0.00025122599158728347 -0.0002323992500980045 0.00021961119704221616 0.00024232657412898078 0.0007033501566560187 -0.0002451455024104125 -0.00034495822303629714 -0.0003206310683893637 -0.00026800952175912515 -0.0002492198398545422 -0.00013192431916055872 -0.0003060295378675055 -0.0002430229945292706 -0.0002049033291769266 -0.0002326189099079054 -0.00022228054514247014 -0.0002275244835956754 -0.00021675638637569288 -0.00021354645774607995 -0.00022269784490749501 -0.00022570719036011378 -0.00022009793120841075 -0.0002229181995668233 -0.00021506233911674239 -0.00016949434713134804 -0.00020365811595166687 -0.00018372278631200074 -0.00020777235628876835 -0.00018295199983826106 -0.0002011326328754198 -0.0002138558120254065 3.0959998887369845e-05 -0.00015099041151317932 -0.00021088803599983005 -7.186206898777376e-05 -0.00020065638942221817 -0.00019069104709323485 -0.00014476775032690482 -0.00015944983605346605 -0.00017581468271167728 -0.0001428569736262798 -0.00018076302682042578 -0.00014633629082807818 -0.00018992275613445402 -0.00012729130237009042 3.632299148798747e-05 -0.00012478862908043908 -9.071616949787375e-05 -0.0001014769821134398 -0.00010023525661676468 4.47644735331328e-05 -0.00012918703901854304 -0.0001431318071238707 -0.00023792963562969626 -0.00023122698742732243 -0.00033562031279118246 -0.00022387359575157375 -0.00021597438987848295 -0.00017264675515243745 -0.0003060992093429851 -0.00021839672876735803 -0.00021302543491566816 -0.0002196299848590672 -0.00020394768809831667 -0.00020243646702989467 -0.00012235247033930014 -0.00019694912140342196 -0.00015587746779049824 -5.436614848499639e-05 -0.00012503896966275147 -4.726129329169787e-05 -9.613626584983913e-05 -8.187910323188003e-05 5.002566646871128e-06 -3.502820655237781e-05 3.3077001990607015e-05 -6.0321013309320435e-06 4.739338423147399e-06 -0.0002611803304937121 -0.00017924037023727327 -0.0001641143373780056 -0.0002025704230967213 -0.00017252799501839817 -0.00010581868947501814 -0.0001510119820392996 -0.00017587997162396235 -0.0001887902439519242 -0.00013648920250071322 -0.00010039158868407616 -3.679204326775422e-05 -7.202615003355331e-05 -5.844407579517487e-05 -5.440363192351941e-05 -0.00029271737045316235 -0.0002742704717145879 -0.00027113480967559195 -0.00022517174707296515 -0.00025266691038634527 -0.0001650713580261133 -0.0001226564985494793 -0.00013990971055282572 -0.00011873151308471062 -2.5947160087435364e-05 2.5064057246910607e-05 -0.0001998093050365329 -0.00017740432013182265 -0.0001559672273018541 -0.0001351835414731017 5.3194452672491586e-05 -0.00011964667347256824 -0.0002318920891884668 -0.00015410556858377577 -0.00017857223110284497 -0.00014088712513926432 -0.00016880681747269625 -9.436814472168487e-05 -0.00011247781115662933 -0.00018957737702432866 -0.00013896875838191312 -0.00018231311313965392 -4.496126789017395e-05 -4.9457493779688474e-05 -0.00011418607782176598 -8.369794780611096e-05 -7.342719778139117e-05 -7.615526447314176e-05 -0.000125558700959501 -2.7247851454784745e-05 -7.3134095883923e-05 -0.00011793411620702968 -5.8649798226765895e-05 -7.731064549212946e-05 -4.0759836791611786e-05 -1.4570496066116801e-05 2.136775924753885e-05 -2.013304491767931e-05 -1.9207211853524657e-05 -5.293092041819152e-06 1.1424610446636217e-05 1.079454709296342e-05 4.2588619483013775e-05 -0.0001018097400066703 -7.274228105379161e-05 -9.419737193765439e-05 -5.947210332065975e-05 -2.2312214205115497e-05 3.93347199048841e-07 1.7385670695819673e-05 3.4748747270375604e-05 2.4620146350616875e-05 -5.9044197181671225e-05 -7.632241914578398e-05 5.291014865917284e-05 3.3894300215242355e-06 -4.059378529349953e-05 -5.3768982907495864e-05 3.888060727846669e-05 4.978352962539459e-05 3.646701523665879e-05 1.833799036287445e-05 -7.369877377711031e-05 0.0013127336345459346 0.00020750753488295718 2.676258818097214e-05 0.00015090111397782175 0.0002976453508105018 0.00019259792779365551 0.0007188955706469769 -0.00026671564373260286 -0.00027870948186552944 -0.0002526132335374546 -0.00010132813922569392 -0.00014296608163465136 -0.0003068641219964203 -0.00029729490191528267 -0.00028862765788732905 -0.0003004030232298489 -0.0002975447753837755 -0.0003009276319347938 -0.0003044427419411051 -0.0003035374703234734 -0.00030787231869285975 -0.0003004508272264677 0.00010235395125450481 -0.00018333481459821086 -9.886998716469801e-05 -0.00012884245973945915 -0.0001238535953589366 -9.284804413887433e-05 -1.7117729945690693e-05 -7.544011815985409e-05 -4.029512781302788e-05 -4.512860473196412e-05 -6.626153432342861e-05 6.292652348299365e-06 -2.4666178164719232e-05 -1.3148983374914884e-05 -1.2283784427091226e-05 8.803445420162727e-06 2.5000275143028845e-05 -4.353949915012823e-05 3.6894497843920004e-06 5.521404373594357e-05 3.695273858339678e-05 5.2744435373933596e-05 0.00010226121930464175 0.00011579354029248491 7.835711474899674e-05 8.143064438942486e-05 8.603234699827535e-05 9.045198109497317e-05 6.497608668280827e-05 0.00011595438653961044 8.894870266737195e-05 6.207486350321158e-05 8.893899969003498e-05 4.753956342792014e-05 9.222660769642344e-05 -5.892529940769261e-05 -1.9967436789138814e-05 3.181149335685802e-05 2.4987096511476264e-05 6.963211196275431e-05 0.00013336109479664536 2.3893633384138618e-05 -5.316340176671643e-06 0.00012206264835876634 7.540200493778536e-05 0.0001359800184938061 9.007126810815488e-05 0.00010994818175777849 0.00013911053279617655 0.0001306715197248642 0.00013539965898997017 0.00012115937851881618 0.00012829107528619313 0.0001419566155799486 0.00010851030140139752 9.959023538162165e-05 0.00012475495330448085 0.00014013616625582173 0.00011661769782402098 0.00013348656261210847 0.0001263343312839895 0.0001350293964771112 0.00010701535984184013 9.986133188719768e-05 9.449818652143648e-05 0.00013955156543858267 0.00011695687706388454 0.00011847627757193906 0.0001074448051475989 0.00010736198539846623 0.00011234118205730047 0.00010705229303506062 0.00012838973139784842 0.00012140772294617688 0.00011343652495138763 0.00010105095215850298 0.00011820194866634111 0.00011826885390851151 0.00010106808524999013 0.00010525826588475226 0.00010418070939340133 9.99842607863761e-05 9.41175097504398e-05 9.71660772652342e-05 9.259920261388866e-05 9.989343118869533e-05 0.00011669819890658963 9.293099592163752e-05 1.7786143589654302e-05 2.859925739206942e-05 7.809740259485847e-05 0.00011530169808188571 0.00010932088325783821 0.00012544986871571647 0.00010867167708168624 9.746042494341418e-05 3.030450693464124e-05 0.00011416037414323128 5.898062790761611e-05 0.00012956268112977948 0.0001136718811483404 0.00011266351125135783 0.00011893654207317342 9.477498692010468e-05 2.2977795238548136e-06 7.468507530591564e-05 8.42445886493701e-05 0.00010478678827757101 9.895959327472336e-05 9.498886033432148e-05 0.00010429097213032846 0.00010119957110380054 0.00010287420783360852 9.233667385201102e-05 0.00010310141737494354 0.0001112627443864041 0.00010170296842478906 7.154528990496231e-05 9.309662281430771e-05 0.00010598512818559698 3.685723235166498e-05 8.727505131558415e-05 9.706412961050389e-05 8.178961459948608e-05 8.867956968778984e-05 9.817593421130119e-05 0.00010042973631524765 8.09220363633483e-05 7.876386404760951e-05 8.395201885460966e-05 6.020426098523647e-05 8.053952639973193e-05 7.241015762164017e-05 6.537752731395512e-05 5.992929407723206e-05 6.474884955111207e-05 5.754325328528127e-05 4.3140145141984664e-05 5.4612585448981616e-05 4.895803661874594e-05 3.358137779003371e-05 5.46793893571099e-05 5.451266900786045e-05 6.33789905766613e-05 6.959992282543244e-05 7.270468935555952e-05 5.9936798751808934e-05 7.22441107105968e-05 9.433971292925035e-05 8.309031487877688e-05 8.375753843010099e-05 8.775067499657554e-05 8.147802778458257e-05 8.034632672272152e-05 7.801474818582519e-05 6.135900756597068e-05 8.16102355202434e-05 7.310700619708813e-05 7.036544947591091e-05 7.037273529622875e-05 5.793399535428154e-05 6.288610075591169e-05 5.0003716016478844e-05 4.9021992642538374e-05 5.7852592743262345e-05 4.170356874349992e-05 5.062786848621274e-05 6.772496504495392e-05 5.4058050971209326e-05 5.183705595247835e-05 5.0774215079184875e-05 4.4737877598384306e-05 4.8291392581131336e-05 4.716888468909933e-05 4.2181227393698504e-05 3.313089381498905e-05 4.581548220626851e-05 7.23465159042265e-05 5.438482729756199e-05 6.616574622846674e-05 5.710905990634292e-05 4.665870092024586e-05 4.6942177951455463e-05 4.590993468831976e-05 2.7581703506086433e-05 5.3878972528036586e-05 4.852587026631074e-05 3.718720392180244e-05 2.3787361173146506e-05 6.071269244599218e-05 4.1142444247586146e-05 3.7188276696150696e-05 2.2034425449009284e-05 2.9995898594665233e-05 4.8520382767302496e-05 4.574183756029916e-05 3.548623623672122e-05 1.9778678694889354e-05 4.0426648814886375e-05 4.5346010269323954e-05 3.685801770039895e-05 6.599213124031327e-05 2.65029616840101e-05 7.070534390229969e-05 1.8583511201421954e-05 7.394137965793035e-05 5.250350073220969e-05 8.967599944219923e-05 2.5615245008718576e-05 4.551690791885339e-05 5.8723757054576546e-05 9.684252556367744e-05 8.273965339553253e-05 7.691233905949761e-05 8.589274870277286e-05 7.207263939990035e-05 9.088972479044141e-05 9.599662755960551e-05 8.800359420678029e-05 9.75054563296516e-05 7.943578562767462e-05 6.197985315646711e-05 6.565276792252646e-05 -3.4937631101388747e-05 -6.852465617509546e-05 -6.618053164403051e-05 -3.258870037797422e-05 -4.863158641581919e-06 9.375766264306436e-06 3.9212901888743616e-05 7.481960987523762e-06 3.144468636433591e-06 3.0465417911365633e-05 -8.826606484165838e-05 -9.990138646632405e-05 4.350039643344488e-05 0.00026266539069886376 -9.480152763180002e-05 4.079508348272837e-05 5.749177949767052e-05 4.8629771886405906e-05 0.0001353681417033653 0.0001276563201113704 -3.0489950424267305e-05 7.257524556085255e-05 -5.585987234388044e-05 5.591606379093669e-05 7.79096712535476e-05 9.755509185203471e-05 0.00010395799350089546 9.802487223835073e-05 9.105047007615266e-05 9.41073620491151e-05 6.752244583610792e-05 3.931580848343082e-05 2.115411866001572e-05 -1.5633229795815417e-05 8.81414217930782e-06 2.3318218856833605e-05 3.342418927104065e-05 -6.690655701462254e-05 0.00013865344106087345 7.237618055965279e-05 2.3356815290243863e-05 0.00012355779109816375 -3.0550878279043463e-05 0.0005682254820130681 0.0004651542070348421 -5.570535556919698e-05 7.110471810592591e-05 9.378316846089816e-05 9.844947200672828e-05 -0.0001147813370869326 -0.00011457702371646697 -7.478796808934914e-05 -9.060390192463085e-05 -3.2653110624668504e-05 8.851558286714886e-05 -6.877574440536154e-05 0.00024102125637000182 0.0004392209940276224 0.0004265308992908417 0.00044278629744986874 -8.859615520760147e-05 6.596042245147155e-05 0.00041456844939545426 0.00042684627652571545 3.5141775052405055e-06 0.000661291153047562 -3.4690007810567536e-05 -6.832351702490175e-05 7.2958761946868266e-06 -1.074571411470166e-05 0.0003140543439864223 0.00048649143639298645 -9.957853094065752e-05 5.053026818647833e-05 1.5952506189284105e-05 0.00038037115190255494 3.753841019092847e-05 0.0005903935612025364 0.000128092472733604 0.00010989239753733875 5.2731482507791975e-05 0.0004649632529846681 2.9368405760343362e-05 2.9804752567107262e-05 1.8017368042264363e-05 1.830113856645679e-05 2.1297823474796852e-05 1.574994781254277e-05 5.761867575879919e-05 6.77921189265495e-05 9.132880202889573e-05 0.00010758832674585975 5.3710471963792665e-05 8.38620846945699e-05 0.0004307432355043798 -5.7833240173617546e-05 -1.2319044906969813e-06 0.0004025072885009206 0.0005765268347439976 0.00010401229453929627 0.00010637505724136194 -6.960999651059742e-05 -6.446498173198272e-05 0.0007608944507947814 0.00046071581423737815 9.21393626452814e-05 0.0006622453993940727 0.00010868193363974752 9.829027312013993e-05 0.00048648709220467756 0.00010012513171899885 7.797990731208958e-05 0.00010021099795957749 0.000447220942594949 0.00010321187864216339 0.00045233305413674383 0.00044719786311790303 5.5169494996903526e-05 0.00010488053956637134 6.459023405196371e-05 0.000107191198104947 0.0001046380773923692 7.48683663416398e-05 0.00011204072599573631 9.647646618780496e-05 0.00010221084679101616 0.00010044905511870946 7.910541902629855e-05 9.772015379078137e-05 8.936604438020105e-05 9.723206537048403e-05 9.078820681347288e-05 9.613531117837464e-05 0.00010630271496000446 0.00010269788405584129 0.0001031504761913702 9.249735358447746e-05 9.174589156701089e-05 -4.232132781884576e-05 9.593093412797702e-05 6.950594553137343e-05 8.296156859516824e-05 8.427589189626526e-05 8.802825876689718e-05 8.439830223927296e-05 7.248344696528503e-05 6.471987683916581e-05 5.314122358284387e-05 0.00010552167348583448 8.49001900479571e-05 8.267265654251901e-05 0.00028951753733990905 0.0004118974269052671 0.00037572297796294537 0.00043396504473714777 -2.384692786958055e-05 -5.198776591780123e-05 -1.6966334492506213e-05 0.0004457568072942152 0.00029465923611292426 2.3786551462398748e-05 2.4684961116149896e-05 0.00041040184178814837 -6.896670672806435e-05 0.0007609482223300065 0.0007278935357800555 9.359792993063592e-05 7.821304031493176e-05 3.419518611475328e-05 5.638682220824768e-05 7.932617416137248e-05 7.616205558170347e-05 6.572700404608597e-05 8.948878104372353e-05 8.21477513454358e-05 7.783410745233902e-05 9.061240180850862e-05 8.314702966765651e-05 7.241969552162712e-05 5.7009440048162896e-05 9.413319432743536e-05 9.63282444250453e-05 9.773832452530602e-05 8.700980533344435e-05 9.288642469439494e-05 9.007505768644993e-05 5.651709999959561e-05 9.2