<?xml version="1.0"?>
<VTKFile type="UnstructuredGrid"  version="0.1"  >
<UnstructuredGrid>
<Piece  NumberOfPoints="1289" NumberOfCells="2413">
<Points>
<DataArray  type="Float64"  NumberOfComponents="3"  format="ascii">0 0 0  0 0.41 0  2.2 0.41 0  2.2 0 0  0.1 0.1 0  0.1 0.3 0  0.8 0.3 0  0.8 0.1 0  0.25 0.2 0  0.248976 0.210065 0  0.245948 0.219718 0  0.241038 0.228563 0  0.234448 0.23624 0  0.226448 0.242432 0  0.217365 0.246888 0  0.207571 0.249423 0  0.197468 0.249936 0  0.187467 0.248404 0  0.17798 0.24489 0  0.169395 0.239539 0  0.162062 0.232569 0  0.156283 0.224265 0  0.152293 0.214968 0  0.150257 0.205058 0  0.150257 0.194942 0  0.152293 0.185032 0  0.156283 0.175735 0  0.162062 0.167431 0  0.169395 0.160461 0  0.17798 0.15511 0  0.187467 0.151596 0  0.197468 0.150064 0  0.207571 0.150577 0  0.217365 0.153112 0  0.226448 0.157568 0  0.234448 0.16376 0  0.241038 0.171437 0  0.245948 0.180282 0  0.248976 0.189935 0  1.1 0 0  1.1 0.41 0  0.1 0.2 0  0.45 0.1 0  0.45 0.3 0  0.55 0 0  0.275 0.1 0  0.275 0.3 0  0.275 0 0  0.55 0.41 0  0 0.205 0  0.825 0 0  0.825 0.41 0  0.275 0.41 0  0.1 0.15 0  0.1875 0.1 0  0.1 0.25 0  0.1875 0.3 0  0.132322 0.2 0  0.241426 0.253518 0  0.241426 0.146482 0  0.264574 0.17974 0  0.264574 0.22026 0  0.138434 0.187348 0  0.153372 0.150948 0  0.148413 0.164094 0  0.176495 0.136535 0  0.22768 0.143571 0  0.138434 0.212652 0  0.148413 0.235906 0  0.176495 0.263465 0  0.22768 0.256429 0  0.23125 0.3 0  0.24769 0.24094 0  0.23125 0.1 0  0.24769 0.15906 0  0.26253 0.193641 0  0.190482 0.137872 0  0.166753 0.146661 0  0.157737 0.244461 0  0.190482 0.262128 0  0.203107 0.261264 0  0.253635 0.22977 0  0.203107 0.138736 0  0.253635 0.17023 0  0.261028 0.206206 0  0.167707 0.251809 0  0.143629 0.224191 0  0.215302 0.2591 0  0.270465 0.245894 0  0.215302 0.1409 0  0.270465 0.154106 0  0.284052 0.202587 0  0.14375 0.3 0  0.209375 0.3 0  0.225966 0.278501 0  0.209375 0.1 0  0.225966 0.121499 0  0.211613 0.273759 0  0.211613 0.126241 0  0.143629 0.175809 0  0.1 0.175 0  0.133484 0.164832 0  0.144491 0.249539 0  0.1 0.225 0  0.133484 0.235168 0  0.3625 0.3 0  0.25691 0.253381 0  0.25691 0.146619 0  0.277205 0.188698 0  0.184724 0.275712 0  0.237372 0.268285 0  0.184724 0.124288 0  0.237372 0.131715 0  0.197578 0.273149 0  0.193656 0.286994 0  0.197578 0.126851 0  0.193656 0.113006 0  0.122953 0.187671 0  0.118362 0.153758 0  0.155372 0.258107 0  0.122953 0.212329 0  0.118362 0.246242 0  0.276394 0.27264 0  0.276394 0.12736 0  0.280965 0.170013 0  0.253125 0.3 0  0.14375 0.1 0  0.253125 0.1 0  0.269489 0.26014 0  0.269489 0.13986 0  0.303639 0.184297 0  0.165625 0.3 0  0.134742 0.273113 0  0.257831 0.274737 0  0.255279 0.128499 0  0.3625 0.1 0  0.165625 0.1 0  0.162031 0.132368 0  0.134955 0.126405 0  0.149334 0.125568 0  0.142936 0.139597 0  0.12695 0.140259 0  0.242514 0.285501 0  0.242514 0.114499 0  0.1 0.125 0  0.117483 0.12555 0  0.11154 0.139776 0  0.121875 0.1 0  0.109143 0.1125 0  0.126805 0.114 0  0.220313 0.29129 0  0.351562 0.287369 0  0.207222 0.2866 0  0.220312 0.10871 0  0.1375 0 0  0.20625 0 0  0.207222 0.1134 0  0.11722 0.17118 0  0.1 0.1625 0  0.0778409 0.16875 0  0.0862762 0.15625 0  0 0.15375 0  0 0.1025 0  0.11722 0.22882 0  0.1 0.2375 0  0 0.3075 0  0.0862762 0.23125 0  0.0598995 0.222547 0  0.0860223 0.2125 0  0.289584 0.181469 0  0.300267 0.16446 0  0.163832 0.269071 0  0.149597 0.273325 0  0.1 0.275 0  0.268498 0.285953 0  0.31875 0.3 0  0.294154 0.254672 0  0.296875 0.3 0  0.293558 0.271845 0  0.285095 0.286799 0  0.324298 0.264316 0  0.307866 0.263745 0  0.317093 0.234901 0  0.315485 0.281219 0  0.316547 0.250625 0  0.344693 0.243731 0  0.331592 0.251147 0  0.35129 0.270663 0  0.338689 0.263683 0  0.340625 0.3 0  0.249849 0.264383 0  0.265097 0.11422 0  0.284688 0.156136 0  0.242188 0.324017 0  0.0856613 0.2625 0  0.132812 0.0612217 0  0.264062 0.0612217 0  0.198437 0.07598340000000001 0  0.0860223 0.1375 0  0.0794526 0.191089 0  0.285228 0.140397 0  0.298655 0.148737 0  0.31875 0.1 0  0.327335 0.15374 0  0.296875 0.1 0  0.312289 0.155283 0  0.313348 0.135607 0  0.321802 0.173916 0  0.298433 0.134116 0  0.112124 0.2625 0  0.127526 0.259083 0  0.121875 0.3 0  0.0682687 0.241503 0  0.1 0.2875 0  0.117762 0.28125 0  0.107813 0.3 0  0.103906 0.313849 0  0.0778409 0.28125 0  0.1375 0.41 0  0.0862762 0.29375 0  0.08886860000000001 0.24375 0  0.307812 0.338778 0  0.307812 0.292227 0  0.33216 0.279164 0  0.387888 0.266414 0  0.264063 0.31948 0  0.110937 0.07598340000000001 0  0.242188 0.07598340000000001 0  0.319914 0.11839 0  0.340625 0.1 0  0.334448 0.133793 0  0.329687 0.108539 0  0.346259 0.118491 0  0.360334 0.173636 0  0.327539 0.205033 0  0.132812 0.288712 0  0.362436 0.278836 0  0.368105 0.259418 0  0.4125 0.41 0  0.329687 0.324017 0  0.329687 0.292306 0  0.285938 0.318952 0  0.417187 0.338778 0  0.324481 0.14148 0  0.351562 0.106771 0  0.40625 0.1 0  0.341028 0.168342 0  0.319221 0.190479 0  0.335292 0.184501 0  0.305563 0.20794 0  0.220313 0.31948 0  0.132812 0.332772 0  0.0865876 0.311259 0  0.0598995 0.302453 0  0.0906541 0.343255 0  0.353543 0.255837 0  0.36574 0.237633 0  0.405007 0.254279 0  0.275795 0.352123 0  0.4125 0 0  0.35493 0.137394 0  0.366563 0.120618 0  0.35917 0.205246 0  0.198438 0.318952 0  0.0626109 0.263892 0  0.40625 0.3 0  0.354809 0.155936 0  0.386512 0.146872 0  0.373101 0.159939 0  0.384375 0.1 0  0.343394 0.19929 0  0.350682 0.185683 0  0.368101 0.189748 0  0.344016 0.221511 0  0.391108 0.213329 0  0.376279 0.204783 0  0.398843 0.182768 0  0.375804 0.222746 0  0.390665 0.196958 0  0.394004 0.23518 0  0.359883 0.222828 0  0.419908 0.204359 0  0.404243 0.204783 0  0.412615 0.224526 0  0.20625 0.41 0  0.165625 0.325257 0  0.0347982 0.244954 0  0.379558 0.247154 0  0.34165 0.147603 0  0.372264 0.136992 0  0.388988 0.121989 0  0.373437 0.108554 0  0.351562 0.31948 0  0.391367 0.16527 0  0.399572 0.223324 0  0.452011 0.227371 0  0.40877 0.239392 0  0.431491 0.237337 0  0.421224 0.250459 0  0.449619 0.262098 0  0.418865 0.276779 0  0.437063 0.252274 0  0.415673 0.263227 0  0.430988 0.266772 0  0.402767 0.273419 0  0.452967 0.244883 0  0.428125 0.3 0  0.408502 0.286186 0  0.384375 0.3 0  0.392267 0.285807 0  0.465927 0.219339 0  0.43489 0.283846 0  0.376424 0.286289 0  0.625 0.3 0  0.473533 0.205186 0  0.461713 0.255517 0  0.5375 0.3 0  0.465725 0.235405 0  0.44631 0.201425 0  0.471875 0.3 0  0.494307 0.227729 0  0.459448 0.206736 0  0.462294 0.180792 0  0.478933 0.227536 0  0.486793 0.21381 0  0.486322 0.251373 0  0.50065 0.215318 0  0.54005 0.175389 0  0.474633 0.189893 0  0.512916 0.208697 0  0.49531 0.199967 0  0.475889 0.175275 0  0.625 0.1 0  0.459311 0.153933 0  0.513645 0.242704 0  0.392892 0.248539 0  0.374815 0.271913 0  0.365974 0.14871 0  0.395312 0.109184 0  0.417061 0.123981 0  0.483196 0.277003 0  0.381967 0.179632 0  0.429898 0.219374 0  0.433473 0.206165 0  0.43149 0.181038 0  0.444208 0.215487 0  0.472985 0.247309 0  0.49375 0.3 0  0.475579 0.262714 0  0.49916 0.274293 0  0.501175 0.184809 0  0.514164 0.225681 0  0.543648 0.214977 0  0.5341630000000001 0.23481 0  0.527396 0.216171 0  0.5375 0.1 0  0.534548 0.202315 0  0.561545 0.192513 0  0.5494289999999999 0.201221 0  0.570923 0.218346 0  0.412582 0.149833 0  0.489327 0.264745 0  0.502439 0.254775 0  0.462391 0.271166 0  0.496775 0.241732 0  0.5294410000000001 0.268606 0  0.482812 0.291099 0  0.46879 0.285038 0  0.452663 0.284065 0  0.51789 0.257882 0  0.53408 0.252026 0  0.560142 0.243543 0  0.545708 0.243474 0  0.547532 0.229019 0  0.55282 0.265323 0  0.398971 0.153424 0  0.400349 0.135684 0  0.410135 0.168145 0  0.428823 0.161323 0  0.415266 0.183779 0  0.329687 0.0810483 0  0.395312 0.0612217 0  0.373437 0.318952 0  0.439062 0.324017 0  0.561816 0.229354 0  0.585029 0.239287 0  0.431827 0.139854 0  0.446796 0.168929 0  0.351562 0.07598340000000001 0  0.395313 0.318944 0  0.54337 0.150762 0  0.460937 0.31948 0  0.418412 0.137529 0  0.428125 0.1 0  0.442783 0.152332 0  0.450742 0.134294 0  0.373437 0.0805201 0  0.384383 0.342558 0  0.482812 0.318952 0  0.429239 0.127457 0  0.444274 0.117405 0  0.426548 0.113815 0  0.49375 0.1 0  0.488954 0.113984 0  0.457973 0.121842 0  0.471621 0.137346 0  0.515625 0.325257 0  0.48125 0.41 0  0.417187 0.07598340000000001 0  0.496363 0.126778 0  0.479043 0.155715 0  0.439062 0.0805201 0  0.481795 0.126919 0  0.471875 0.1 0  0.489227 0.142159 0  0.515625 0.1 0  0.520062 0.147117 0  0.501244 0.161791 0  0.505431 0.112984 0  0.505344 0.14029 0  0.526563 0.119081 0  0.5181750000000001 0.131908 0  0.539868 0.136937 0  0.460937 0.108383 0  0.474242 0.114415 0  0.460937 0.0810483 0  0.487841 0.167168 0  0.526563 0.0612217 0  0.526563 0.106406 0  0.537619 0.112743 0  0.58125 0.1 0  0.559375 0.1 0  0.482812 0.08105569999999999 0  0.471883 0.0587655 0  0.570312 0.129396 0  0.548437 0.07598340000000001 0  0.504687 0.08105569999999999 0  0.49375 0.0470127 0  0.570312 0.112663 0  0.592798 0.12103 0  0.553986 0.12103 0  0.570312 0.0805201 0  0.48125 0 0  0.114787 0.2 0  0.160769 0.284765 0  0.175816 0.288361 0  0.162602 0.116048 0  0.154687 0.07598340000000001 0  0.176562 0.0805201 0  0.0598995 0.147547 0  0.307812 0.109924 0  0.291279 0.117157 0  0.278491 0.112989 0  0.285937 0.07598340000000001 0  0.307812 0.0805201 0  0.296928 0.196743 0  0.318141 0.218507 0  0.330208 0.227509 0  0.301397 0.225668 0  0.302706 0.241401 0  0.292574 0.21424 0  0.282762 0.230935 0  0.284351 0.244775 0  0.269553 0.23261 0  0.278572 0.217242 0  0.226924 0.342606 0  0.446928 0.185396 0  0.515625 0.3 0  0.504687 0.288879 0  0.515256 0.276534 0  0.529479 0.285328 0  0.58125 0.3 0  0.541969 0.272936 0  0.559375 0.3 0  0.556796 0.282529 0  0.543473 0.287206 0  0.581429 0.267774 0  0.566728 0.271171 0  0.570869 0.255585 0  0.577404 0.283865 0  0.603125 0.3 0  0.597531 0.28035 0  0.570312 0.338778 0  0.592188 0.292492 0  0.603513 0.256094 0  0.614063 0.286265 0  0.610329 0.27064 0  0.632708 0.251285 0  0.657223 0.261594 0  0.618789 0.257807 0  0.614188 0.22987 0  0.630935 0.265614 
[...]
<PointData  Scalars="p"> 
	<DataArray  type="Float64"  Name="p"  format="ascii">
0.00045428743909890567 0.0004380896685466804 2.097394549805222e-09 -5.049277849237569e-08 0.0005069709957115873 0.0005075363071721631 4.2905551406782156e-05 0.00010335361575640352 -0.00028379767951370173 -0.00028966660746982314 -0.0003045324653364032 -0.0003210186127980238 -0.0003529758371286965 -0.00040621076886605226 -0.0004986697605257165 -0.000638252693497645 -0.0007523532941617552 -0.0009239633404013731 -0.0006986222748545386 -0.0003165094268256874 0.00022347754105118346 0.0008908322063117481 0.001424541869475279 0.0017586928644252628 0.001752399768362517 0.0014041734525218241 0.0008716740783573774 0.00020353260645902333 -0.00043871679591639667 -0.0007225771347416896 -0.0009080716376305022 -0.0007848048192603274 -0.0006629102362902688 -0.0005296546762533789 -0.0004342601521375602 -0.000380274425208538 -0.0003431653784151925 -0.000317536016773648 -0.000295834132091512 6.593277817667295e-05 0.00010900029869323794 0.0011440804449987577 -9.281545283148785e-05 -0.00016387392454157818 -3.0286111534623152e-05 -0.00017438226430264433 -0.0001693856887746592 3.2744977835930456e-05 -1.4906038923026585e-05 0.0007455372472001918 0.0001056567722366756 3.1808465691290656e-05 5.2202572398072536e-05 0.0008105784952996399 1.832907863942615e-05 0.0008150428140958324 4.427637557521893e-05 0.0015656687552809165 -0.00033616923553284137 -0.00036317884856027735 -0.0003147965701319184 -0.0003004041416780305 0.0015139980951235264 0.00031161462661645587 0.00072199508096019 -0.0003494324937244623 -0.00044035369320771756 0.0015295020759090194 0.0007363420876058597 -0.0003175631766013918 -0.00040988363254052136 -0.00011758997453713277 -0.0003241955355730732 -0.00013674731416086553 -0.0003496810079846258 -0.00029781883528022437 -0.0006092357244306028 -0.000209597916256077 0.0002102306450109332 -0.0006000628431353762 -0.0005976751391986387 -0.0003099399177557243 -0.0006235312524728763 -0.0003305958310648455 -0.0002936422430546922 -0.0002285962293683328 0.001179833525534619 -0.0004965620564082343 -0.0002994180544948073 -0.0005230969033256159 -0.0003310859607874894 -0.0003009317809894404 0.00034701405707564524 -8.276929452026776e-05 -0.00029938536497205496 -6.752955342970737e-05 -0.00031039176939439897 -0.00038670698031552825 -0.0004076329206721613 0.0011616951039457293 0.0010209685437394438 0.0010134211106718734 0.0005490907966456848 0.0010437154084359916 0.0010412155160807214 -0.00023949170458645522 -0.00030476026784405943 -0.00033838980622015284 -0.0003055677585220527 -0.0002117560492112552 -0.00034576520459096363 -0.0002339928525961433 -0.0003759727015323902 -0.0003442584701759775 -0.00011735556391969216 -0.00034785806944433964 -0.00012893905541840108 0.001348510805302524 0.0008694721968400533 0.00026435139588567864 0.001348818000146411 0.0008806434411834617 -0.0002757174805184207 -0.0003066953293868824 -0.00032350753796993374 -0.00015956788909355648 0.0003354676333293459 -0.0001561524612075712 -0.00029350240135946585 -0.00032766985761621963 -0.00031233210260989055 0.0001963404677945669 0.0005168719935184916 -0.00029179541502649475 -0.00031472507652675674 -0.00016144834240544462 0.00020641560151064917 0.00011014756252757785 0.00048690907253859053 0.00033657323555152854 0.00042284839640009897 0.000641991085189942 -0.00023798104469410693 -0.0002495576188911239 0.0006213492302567156 0.0005836990144286264 0.0007071770475614332 0.0004478523778819676 0.0005339347095987496 0.00048137103250160023 -0.00016557923044652241 -0.00028331518959684763 -0.00020859709110654183 -0.00018404640599824278 0.00037278348267200004 0.00019814102594741 -0.00020452159927101938 0.001082385987675182 0.0009131346594091333 0.0008770119179679077 0.0008218464005023261 0.0006788338696041435 0.0005399184893257745 0.0010885350952163071 0.0009379886254059036 0.0005167984036044018 0.000899496639502121 0.0008359369920331451 0.0009939643418944734 -0.000313821203643689 -0.0003227059585561863 6.60624053813435e-05 0.00032150751172912545 0.0006277451579467659 -0.00024057742979974366 -0.0002075422935640298 -0.0003013542767401321 -0.00019923645126527134 -0.00029207599973736596 -0.00024291703308329694 -0.0003163443916942146 -0.0003013098487789452 -0.0003144096727385276 -0.00027971835625125683 -0.0003128081204456667 -0.0003348049844036442 -0.0003242429499123069 -0.0003291543283563659 -0.0003252272806971658 -0.00024108087869848576 -0.000311246870868985 -0.0002565091216297666 -0.00032818325422966294 -3.7157011430492713e-06 0.0007198604814972728 0.00036575510090947305 -6.589326137677274e-06 0.00012660549859130505 0.0006951267559757692 0.0009553801370560411 -0.00032260107139862735 -0.00032351609345573527 -0.00018453023117579007 -0.00030320222433033667 -0.0001946176139464241 -0.0003174957359640292 -0.0003048046990226089 -0.0003098320467929094 -0.0003105157328277893 0.0007012482608759331 0.0006540771690353532 0.00045417504473022324 0.0007877806743040449 0.0005706782212668476 0.0005487482478355425 0.00048631256817500046 0.0004563062259692331 0.0006006133552356645 0.00035957659414310707 0.0005493161940103957 0.0008440578118470021 -7.547621303781751e-05 -0.0002406544319825257 -0.0003002654477341499 -0.0003484416464642905 -7.32876109134558e-05 0.000435124975124351 -7.124400146259911e-06 -0.0002573868446729498 -0.00018354640659645475 -0.000274603116613477 -0.0002148364531610678 -0.00022903622779929967 -0.0002683512224346042 -0.0003071144564419421 0.00043045231513238314 -0.00032111618369937855 -0.00035071177859064576 -8.66214873410061e-05 -0.00013349601261229387 -0.0002620839182894721 -0.00010678644291816128 -0.00012614412981506496 -0.0002969352649239925 -0.00018818357753248825 -0.00012108819304433473 -0.0002916627601978591 -0.00030761536318078846 -0.0003003585837471357 -0.00030640967261331 4.2253752364305195e-06 0.000369604899730623 0.0004916375921639661 0.0005304237131178908 0.0004244604043486213 -0.0003422099176818714 -0.00034563899013944954 -0.00035081633419437627 1.897782165947983e-05 -7.165189222288964e-05 -0.0002456539043738878 -0.00019927792169447393 -0.00030268189038396324 0.00010982377931186335 0.0006765311431696415 -0.00022655946875003465 -0.0002640481192610051 -0.00019359412689507645 -0.00023308579339827813 -0.00014144957328216846 -0.0003023435830326994 -0.0002883752002466 -0.0002764683735611967 -0.00032034831623070945 -0.00030690743683320284 -0.00029562764390973935 -0.00022263615697604088 -0.00032940725466592196 -0.00026622581598557884 -0.0003481429249655542 -0.00032664690960600227 -0.00025212501129371023 -0.00027357492261835255 -0.0003185960659624513 0.00021770493128892373 0.00024169066148687162 0.0007029674979308856 -0.0003585098415114964 -0.0002793545586244139 -0.00021149889723075938 -0.00016550212035388738 -0.00017058052176307056 -0.00016780049118911226 -0.00020453162347403115 -0.0003252968129273512 -0.00024506672365436896 -0.00034495902018818965 -0.0003094668166512161 -0.00033046260883278053 -0.0002437667245598091 -0.0002878096820796761 -0.00029393374974563 -0.00032646761568882684 -0.0002886718131850044 -0.00032218115978109786 -0.00024945748722848685 -0.000200389720947352 -0.00027478671277034454 -0.00024700513704122766 -0.0002932055178756318 -0.00019019037589958543 -0.00023653053355005775 -0.00029770816226918213 0.0001003419367980676 -0.00014575271109350073 -0.00020717589992646045 1.9719776128132966e-05 -0.00020442270854011227 -0.0001980570454433826 -0.00011573186965781631 -9.81439676582092e-05 -0.00018206901850860557 -0.00011971722814591619 -0.00015566570587947725 -0.00012011488799602438 -0.00011562011707770543 -8.085174890201766e-05 -7.0421412974594e-05 -0.00011723380534012915 -5.0276848757030835e-05 -8.9878328119776e-05 -0.00010106777139633956 -1.0837198950713324e-05 -0.00010069310282012826 -1.5328288499337233e-05 -0.0003574901561693784 -0.0003346463405931527 -0.00023609224268111606 -0.0001430872629857872 -0.00013025012675805988 -0.00010288234653681976 -0.00024302220619584191 -0.0002812103886904495 -0.00023537767117055757 -0.00016528095830656108 -0.00024090990524304454 -0.00017232713911122987 -6.491977537516816e-05 -0.0001466208433012163 -5.480527816586261e-05 -8.000844143930667e-05 -3.037451322929437e-05 2.622486263871276e-05 4.215534429082076e-05 -7.087562976168975e-06 -5.698279109351399e-05 -1.8452465530258787e-05 -1.549532004190434e-05 -2.9188583394267596e-06 7.558750046755858e-05 -0.0001484097681216178 -9.174895255971193e-05 -4.8037624270677416e-05 -0.00018356144030796828 -8.13856751042094e-05 3.933777542032547e-05 -9.617101634282409e-05 -0.00014289155564317944 -0.0001885969243062631 8.485808997988089e-06 5.704500928354356e-05 0.00011321129142571669 8.167110055275018e-05 6.465605042617592e-05 9.847921688983468e-05 -0.00017597962065739136 -0.000158695587654949 -0.00017513822844886896 -0.0001350560927728641 -0.00019908390594426992 -0.0001307730292321671 -8.427605978302489e-05 -0.0001826574734244799 -0.00013354457998934914 9.244329403701706e-05 0.00014021246840172948 -0.00011800642211347617 -0.00012233140632486803 -0.00011601006256547358 -0.0001746052795346261 -9.50034332823596e-05 -0.00011683839105884376 -0.0001333082567659133 -0.00010587427323564838 -0.00011271886144311098 -0.00010558358957805041 -0.00012010924329364701 -0.0001213159180186772 -8.979222202114001e-05 -0.00011845408042832957 -0.0001043946074301019 -0.00011918738095868191 -7.7416675258197e-05 -9.201092499522884e-05 -0.00010337043168190518 -0.00010020673635854929 -3.414915736063759e-05 -8.288854003618614e-05 -8.585933796687845e-05 -9.835823181188139e-05 -9.620170997148123e-05 -8.480499632412262e-05 -0.00010141053581017962 -8.266749391104042e-05 -0.00010023319992372157 -6.810151747420695e-05 -0.00010148186964639565 -9.267992937284231e-05 -8.682096136994762e-05 -0.00010278982408958492 -8.688350344905687e-05 -0.00010004124709093488 -9.527326985938745e-05 -9.590342542253969e-05 -9.402101710257629e-05 -7.604979439217674e-05 -9.261752949469991e-05 -3.19082055244785e-05 -7.203727712560259e-05 -7.352644016906595e-05 -3.31211665218737e-05 -4.999249853057312e-05 -5.9464385605192415e-05 -5.787055478081586e-05 -6.372235552368811e-05 -3.067460676202952e-05 -5.5598762538573014e-05 -3.823872983605945e-05 -4.9201056473241826e-05 -3.436909699767883e-05 -7.232185615846346e-05 -3.4936488706319654e-05 -5.395341547910666e-05 0.001313628227319628 0.00020583541159093196 2.5586557175105694e-05 0.00015412721616292688 0.0002999174510562389 0.00019489125861371683 0.0007214036359746828 -0.00023636556828683216 -0.00026413627650212154 -0.00024397540178006365 -8.57694354501937e-05 -0.00011974910837125173 -0.0003060347618780607 -0.0003106886564785412 -0.0003178448874897109 -0.0003072130599325798 -0.00030739974892570013 -0.000303272145316593 -0.0003034987974411281 -0.0003011130827296124 -0.00030383829521758834 -0.00030068215582767117 0.000100279264466068 -0.00015326644999430245 -2.055360356645212e-05 -4.068121176393346e-05 -2.9560588341266424e-06 2.2653371843842618e-05 7.437755344606614e-05 6.661215460633903e-05 5.425978616355725e-05 7.765401838382453e-05 4.9901367734383616e-05 0.00013172092621749408 0.00010794337022532023 0.000131227650020685 0.0001017012257453752 9.286755044271747e-05 0.00012090544054407737 1.5239276660537669e-05 9.800280383479978e-05 0.0001533393787943603 0.00011586381453816984 0.00013882897803775595 0.00015133871859281044 0.00012448370775348575 0.00015069704970027648 0.0001350477250277411 0.00013934488576222427 0.00015289575578156342 9.883928813411708e-05 0.00012917688107246642 8.271613329640913e-05 0.00011860085913397975 0.00012336522039991577 0.00010124602882634059 0.00010626315223116586 2.213720860234897e-06 5.5002319038868105e-05 0.000139163404857302 0.00014704160649403142 0.00010263181398574579 9.136971821808505e-05 7.63997237503727e-05 7.280598763271333e-05 0.00010641874151317795 9.189879750634481e-05 0.00012246321294127088 9.561713933341e-05 8.28073417308388e-05 0.00011274074182190464 0.00012703873429890887 0.00010023541182612055 0.00014269014033729122 0.00013426869826556123 9.941261510521769e-05 9.716007892164773e-05 7.22966404089433e-05 0.00011595907622399896 8.153609811380723e-05 0.00010815171561365879 5.2296133426480715e-05 6.965055812899575e-05 6.335126309528115e-05 7.401685170927923e-05 6.312106644413236e-05 7.379586848471444e-05 7.793321163186771e-05 5.6115258932656275e-05 6.40830225058988e-05 6.525495560119772e-05 5.966684709387413e-05 4.620764052039584e-05 4.677585301846258e-05 5.433875560408507e-05 4.4941276043717245e-05 5.1509259655719185e-05 4.676761018929162e-05 7.344640319101535e-05 4.1387421784292614e-05 5.24187010936272e-05 5.425629303170157e-05 4.86707470257395e-05 4.586717438036744e-05 4.5369341728480486e-05 4.1866830929299077e-05 3.3481991902520684e-05 2.8215893836123298e-05 9.083680931214988e-05 8.529632683750861e-05 8.828121435021969e-05 9.191119318811634e-05 7.533475424231808e-05 9.524027015686585e-05 4.496642628906637e-05 4.614716428886403e-05 4.9673790949107774e-05 4.5632399644616e-05 9.263217340539932e-05 0.00011064213026832484 9.232431834567827e-05 5.596251089393929e-05 6.0730352758363965e-05 4.509876969990912e-05 4.4351821950096564e-05 6.03788031029371e-05 7.875005381626662e-05 8.306825164826901e-05 0.00011591654156821336 6.0922148998510785e-05 8.883798027129836e-05 5.339860156357305e-05 5.878478422438417e-05 6.656404885832913e-05 5.797379175966663e-05 7.106183722071843e-05 5.245656573561846e-05 4.929697770131324e-05 9.574826942120489e-05 0.00012904195575808353 0.00010862343458322097 0.00010632846685117205 3.798929621845617e-05 0.00012465128053509224 8.377123941900896e-05 0.00010632593303303545 0.00010827441749603788 0.00010586721672783371 0.00010086446978935519 0.00011545351225118122 7.747900398583772e-05 9.446850019648355e-05 9.469021134100775e-05 0.00011944238832540886 0.00012273618967730777 0.00011515666791794703 0.00011508301754448574 0.000120075215689632 0.00010551432144712543 8.377252554767487e-06 9.664678916186382e-05 5.1023457993181414e-05 7.443463370332915e-05 9.0420187457329e-05 7.390784995852577e-05 7.764531832850039e-05 9.281622062044098e-05 2.9417008058026075e-05 4.705225240785333e-05 5.6398912309134255e-05 5.617455832899925e-05 4.565537661098512e-05 5.1156049573549575e-06 2.7095091168779642e-05 6.504074133786652e-05 6.746607556954974e-06 -4.748805854478192e-05 -8.169534648995094e-06 -2.1737636817143823e-05 -2.491493699468426e-05 -2.3749427085937832e-05 4.892196134044107e-06 2.0616988633169518e-05 -4.642873584701081e-05 -9.219432207174992e-07 2.7342287602655172e-05 -2.4560400018750856e-05 -2.424793220276238e-05 -1.79675082404369e-05 -6.973501076727604e-05 3.1453733861724385e-05 5.094009008822667e-05 7.613357470230435e-05 2.271455015979635e-05 6.610991316821758e-05 -3.1434506338333407e-06 -3.184009479092028e-05 -2.8719583611785842e-05 -1.5579211404169613e-05 -6.0187922858531915e-05 -8.31342627095398e-05 -8.466474048100735e-05 -6.374903372935648e-05 3.108897296619325e-05 2.909581597683081e-05 4.76594515200664e-05 -1.7776972217457026e-05 9.778761566878455e-05 2.269098427008999e-06 -2.4651437842960505e-05 -2.621088961849196e-05 -3.880429207637727e-05 -3.11887482543085e-05 5.761174124141808e-05 -3.2099191655578945e-05 -9.43330832149678e-06 9.049243751811309e-05 7.014943009490002e-05 -8.568002510867238e-06 4.6601642012450394e-05 7.426725052581929e-05 9.062000558752434e-05 9.09383255935577e-05 0.00011895364639862794 2.1387066287045304e-05 0.00011693674133597508 6.60904778721026e-05 0.00012149822017522015 0.00010690510537413315 0.00011802093128993929 8.916981924941702e-05 9.59267956635157e-05 0.0001100251814894742 0.00010752833158322665 0.0001274945685866137 0.00012605747255898153 0.0001255451507239083 0.0001281869864086457 0.00011442471253883542 9.323091891978166e-05 0.00011249174636853782 8.076681634221708e-05 0.0001269874781104495 0.0001140587639421344 0.00012471533644479118 -5.063762106505942e-05 -4.7400732072563973e-05 -6.517877382085417e-05 -5.637820606503575e-05 -8.093323151753109e-05 -9.458201154394661e-05 -9.183030624282123e-05 -6.861781591405985e-05 -4.522094126573852e-05 -4.2622138236190316e-05 -9.91881843033826e-05 -6.433963822692471e-05 4.5720743061580225e-05 0.0002652811438878944 -6.897235049251804e-05 3.6231537840715343e-05 0.0001509106820840754 9.768225702360591e-05 0.00011250068011278455 7.89048823842806e-05 4.089740395184083e-05 6.168455603242415e-05 -7.517191220740415e-05 8.575039521081694e-05 6.399899039911406e-05 9.292587164902882e-05 8.637635619431146e-05 0.00012634298180229302 7.09651478617731e-05 8.515632992980838e-05 2.6303017225324434e-05 4.798294878065078e-05 2.7321369999176847e-05 4.399464776424577e-05 -2.4436439977025493e-05 4.6205629154644184e-05 0.00011726814938810877 -4.143352736685424e-05 0.00013444748909754355 0.00010437291554604979 0.00010942238601299206 0.00012029676185725499 4.530180039232372e-05 0.0005713091371413823 0.00046381673679627566 -3.1380342719994766e-05 3.955360207367005e-05 3.2449402687649583e-05 9.812384809868233e-05 -8.119305907998935e-05 -8.554467456072159e-05 -5.696612701633929e-05 -6.4647776775974e-05 -1.491634781678395e-05 5.7546980005620025e-05 -4.13835522932056e-05 0.0002400112710152918 0.0004419408410941476 0.0004255379052748925 0.00044136429718289496 -5.8731169710327616e-05 7.214254298308749e-05 0.00041692288360665276 0.00042562229092150413 -7.378568477227626e-06 0.0006606472806294927 -3.286716672708374e-05 -8.745277273147286e-05 7.48389915017665e-05 3.8322847258278876e-06 0.0003135170651431602 0.0004850823694930144 -6.691953062434271e-05 7.383279139830479e-05 1.9192600352652355e-05 0.00037974257298957747 8.119161722573655e-05 0.0005892869362031597 0.0001333772965937241 0.00011729048018160656 6.197520582455192e-05 0.0004680517176969716 -2.176489067379571e-05 -2.8661998480785478e-05 7.633212749263963e-05 3.0452048071015714e-05 1.2765813749620036e-05 -2.360219183396264e-05 0.00011536685405299454 0.00012573028824336765 0.00011256776754972607 8.674237819464654e-05 8.319203937628665e-05 7.803429314422167e-05 0.00042947851165375003 -7.61335507252114e-05 6.452840319682063e-05 0.0004018297027063392 0.000579489976413689 8.764782561055056e-05 9.33582329090818e-05 -8.440731928231527e-05 -5.160215340156847e-05 0.0007624100104431978 0.000463897603501952 0.00011682236250423938 0.0006647250250183634 8.663516765668911e-05 9.086759441396194e-05 0.0004896870928013556 0.00011178636107609307 0.00011588754872215324 9.866361040851211e-05 0.0004503232138296241 0.00010415137984503836 0.000455455222462689 0.00045024219397638807 0.00012082013582648272 5.1092757856795614e-05 0.00011413921628867669 0.00011542637732154714 7.246727445275803e-05 0.00010032712610784901 6.122689622939694e-05 5.844205906461084e-05 5.439784172176797e-05 7.107584860744368e-05 9.285115786750704e-05 6.983525613778862e-05 6.927263297255726e-05 6.985267206799028e-05 7.941961501046827e-05 4.7554691663783315e-05 6.615804372511969e-05 4.762321523852551e-05 5.279219916626587e-05 4.862188139362703e-05 5.773598747291018e-05 1.2210359543554082e-05 1.8287001777406323e-05 3.2787961867925576e-05 2.7501084795810452e-05 2.1002661680570507e-05 2.5199104234185042e-05 2.4560331084425662e-05 3.3101027968369e-05 6.936833287825563e-05 6.765562098024914e-05 0.00010299487484007711 4.563773165373013e-05 5.411012353932099e-05 0.00028857590753712147 0.00041437955395394184 0.00037795998168292476 0.00043678284791611013 -3.839663693028686e-05 -6.913821693598284e-05 5.6961308438504743e-05 0.0004443579216408111 0.00029726869540565553 8.000572799970252e-05 1.0555308325193677e-06 0.0004095344841264157 -7.86418562144104e-05 0.0007614592130957929 0.0007294274904327984 0.00010760585411704015 0.00012255648799749274 0.0001069101445457754 0.00011603970049349977 0.00010415372531558808 9.007220459007565e-05 9.524895823632077e-05 8.179635089019329e-05 0.00010717649396984969 0.00011104865316989206 9.687208709656751e-05 0.00010447762921245767 0.00010915282251145212 9.648800385859412e-05 9.969636638009411e-05 0.00010406309791115948 8.690747786424442e-05 8.826499107736721e-05 0.00011328780758898833 9.141425865351941e-05 5.681365269610686e-05 0.0