<?xml version="1.0"?>
<VTKFile type="UnstructuredGrid"  version="0.1"  >
<UnstructuredGrid>
<Piece  NumberOfPoints="1289" NumberOfCells="2413">
<Points>
<DataArray  type="Float64"  NumberOfComponents="3"  format="ascii">0 0 0  0 0.41 0  2.2 0.41 0  2.2 0 0  0.1 0.1 0  0.1 0.3 0  0.8 0.3 0  0.8 0.1 0  0.25 0.2 0  0.248976 0.210065 0  0.245948 0.219718 0  0.241038 0.228563 0  0.234448 0.23624 0  0.226448 0.242432 0  0.217365 0.246888 0  0.207571 0.249423 0  0.197468 0.249936 0  0.187467 0.248404 0  0.17798 0.24489 0  0.169395 0.239539 0  0.162062 0.232569 0  0.156283 0.224265 0  0.152293 0.214968 0  0.150257 0.205058 0  0.150257 0.194942 0  0.152293 0.185032 0  0.156283 0.175735 0  0.162062 0.167431 0  0.169395 0.160461 0  0.17798 0.15511 0  0.187467 0.151596 0  0.197468 0.150064 0  0.207571 0.150577 0  0.217365 0.153112 0  0.226448 0.157568 0  0.234448 0.16376 0  0.241038 0.171437 0  0.245948 0.180282 0  0.248976 0.189935 0  1.1 0 0  1.1 0.41 0  0.1 0.2 0  0.45 0.1 0  0.45 0.3 0  0.55 0 0  0.275 0.1 0  0.275 0.3 0  0.275 0 0  0.55 0.41 0  0 0.205 0  0.825 0 0  0.825 0.41 0  0.275 0.41 0  0.1 0.15 0  0.1875 0.1 0  0.1 0.25 0  0.1875 0.3 0  0.132322 0.2 0  0.241426 0.253518 0  0.241426 0.146482 0  0.264574 0.17974 0  0.264574 0.22026 0  0.138434 0.187348 0  0.153372 0.150948 0  0.148413 0.164094 0  0.176495 0.136535 0  0.22768 0.143571 0  0.138434 0.212652 0  0.148413 0.235906 0  0.176495 0.263465 0  0.22768 0.256429 0  0.23125 0.3 0  0.24769 0.24094 0  0.23125 0.1 0  0.24769 0.15906 0  0.26253 0.193641 0  0.190482 0.137872 0  0.166753 0.146661 0  0.157737 0.244461 0  0.190482 0.262128 0  0.203107 0.261264 0  0.253635 0.22977 0  0.203107 0.138736 0  0.253635 0.17023 0  0.261028 0.206206 0  0.167707 0.251809 0  0.143629 0.224191 0  0.215302 0.2591 0  0.270465 0.245894 0  0.215302 0.1409 0  0.270465 0.154106 0  0.284052 0.202587 0  0.14375 0.3 0  0.209375 0.3 0  0.225966 0.278501 0  0.209375 0.1 0  0.225966 0.121499 0  0.211613 0.273759 0  0.211613 0.126241 0  0.143629 0.175809 0  0.1 0.175 0  0.133484 0.164832 0  0.144491 0.249539 0  0.1 0.225 0  0.133484 0.235168 0  0.3625 0.3 0  0.25691 0.253381 0  0.25691 0.146619 0  0.277205 0.188698 0  0.184724 0.275712 0  0.237372 0.268285 0  0.184724 0.124288 0  0.237372 0.131715 0  0.197578 0.273149 0  0.193656 0.286994 0  0.197578 0.126851 0  0.193656 0.113006 0  0.122953 0.187671 0  0.118362 0.153758 0  0.155372 0.258107 0  0.122953 0.212329 0  0.118362 0.246242 0  0.276394 0.27264 0  0.276394 0.12736 0  0.280965 0.170013 0  0.253125 0.3 0  0.14375 0.1 0  0.253125 0.1 0  0.269489 0.26014 0  0.269489 0.13986 0  0.303639 0.184297 0  0.165625 0.3 0  0.134742 0.273113 0  0.257831 0.274737 0  0.255279 0.128499 0  0.3625 0.1 0  0.165625 0.1 0  0.162031 0.132368 0  0.134955 0.126405 0  0.149334 0.125568 0  0.142936 0.139597 0  0.12695 0.140259 0  0.242514 0.285501 0  0.242514 0.114499 0  0.1 0.125 0  0.117483 0.12555 0  0.11154 0.139776 0  0.121875 0.1 0  0.109143 0.1125 0  0.126805 0.114 0  0.220313 0.29129 0  0.351562 0.287369 0  0.207222 0.2866 0  0.220312 0.10871 0  0.1375 0 0  0.20625 0 0  0.207222 0.1134 0  0.11722 0.17118 0  0.1 0.1625 0  0.0778409 0.16875 0  0.0862762 0.15625 0  0 0.15375 0  0 0.1025 0  0.11722 0.22882 0  0.1 0.2375 0  0 0.3075 0  0.0862762 0.23125 0  0.0598995 0.222547 0  0.0860223 0.2125 0  0.289584 0.181469 0  0.300267 0.16446 0  0.163832 0.269071 0  0.149597 0.273325 0  0.1 0.275 0  0.268498 0.285953 0  0.31875 0.3 0  0.294154 0.254672 0  0.296875 0.3 0  0.293558 0.271845 0  0.285095 0.286799 0  0.324298 0.264316 0  0.307866 0.263745 0  0.317093 0.234901 0  0.315485 0.281219 0  0.316547 0.250625 0  0.344693 0.243731 0  0.331592 0.251147 0  0.35129 0.270663 0  0.338689 0.263683 0  0.340625 0.3 0  0.249849 0.264383 0  0.265097 0.11422 0  0.284688 0.156136 0  0.242188 0.324017 0  0.0856613 0.2625 0  0.132812 0.0612217 0  0.264062 0.0612217 0  0.198437 0.07598340000000001 0  0.0860223 0.1375 0  0.0794526 0.191089 0  0.285228 0.140397 0  0.298655 0.148737 0  0.31875 0.1 0  0.327335 0.15374 0  0.296875 0.1 0  0.312289 0.155283 0  0.313348 0.135607 0  0.321802 0.173916 0  0.298433 0.134116 0  0.112124 0.2625 0  0.127526 0.259083 0  0.121875 0.3 0  0.0682687 0.241503 0  0.1 0.2875 0  0.117762 0.28125 0  0.107813 0.3 0  0.103906 0.313849 0  0.0778409 0.28125 0  0.1375 0.41 0  0.0862762 0.29375 0  0.08886860000000001 0.24375 0  0.307812 0.338778 0  0.307812 0.292227 0  0.33216 0.279164 0  0.387888 0.266414 0  0.264063 0.31948 0  0.110937 0.07598340000000001 0  0.242188 0.07598340000000001 0  0.319914 0.11839 0  0.340625 0.1 0  0.334448 0.133793 0  0.329687 0.108539 0  0.346259 0.118491 0  0.360334 0.173636 0  0.327539 0.205033 0  0.132812 0.288712 0  0.362436 0.278836 0  0.368105 0.259418 0  0.4125 0.41 0  0.329687 0.324017 0  0.329687 0.292306 0  0.285938 0.318952 0  0.417187 0.338778 0  0.324481 0.14148 0  0.351562 0.106771 0  0.40625 0.1 0  0.341028 0.168342 0  0.319221 0.190479 0  0.335292 0.184501 0  0.305563 0.20794 0  0.220313 0.31948 0  0.132812 0.332772 0  0.0865876 0.311259 0  0.0598995 0.302453 0  0.0906541 0.343255 0  0.353543 0.255837 0  0.36574 0.237633 0  0.405007 0.254279 0  0.275795 0.352123 0  0.4125 0 0  0.35493 0.137394 0  0.366563 0.120618 0  0.35917 0.205246 0  0.198438 0.318952 0  0.0626109 0.263892 0  0.40625 0.3 0  0.354809 0.155936 0  0.386512 0.146872 0  0.373101 0.159939 0  0.384375 0.1 0  0.343394 0.19929 0  0.350682 0.185683 0  0.368101 0.189748 0  0.344016 0.221511 0  0.391108 0.213329 0  0.376279 0.204783 0  0.398843 0.182768 0  0.375804 0.222746 0  0.390665 0.196958 0  0.394004 0.23518 0  0.359883 0.222828 0  0.419908 0.204359 0  0.404243 0.204783 0  0.412615 0.224526 0  0.20625 0.41 0  0.165625 0.325257 0  0.0347982 0.244954 0  0.379558 0.247154 0  0.34165 0.147603 0  0.372264 0.136992 0  0.388988 0.121989 0  0.373437 0.108554 0  0.351562 0.31948 0  0.391367 0.16527 0  0.399572 0.223324 0  0.452011 0.227371 0  0.40877 0.239392 0  0.431491 0.237337 0  0.421224 0.250459 0  0.449619 0.262098 0  0.418865 0.276779 0  0.437063 0.252274 0  0.415673 0.263227 0  0.430988 0.266772 0  0.402767 0.273419 0  0.452967 0.244883 0  0.428125 0.3 0  0.408502 0.286186 0  0.384375 0.3 0  0.392267 0.285807 0  0.465927 0.219339 0  0.43489 0.283846 0  0.376424 0.286289 0  0.625 0.3 0  0.473533 0.205186 0  0.461713 0.255517 0  0.5375 0.3 0  0.465725 0.235405 0  0.44631 0.201425 0  0.471875 0.3 0  0.494307 0.227729 0  0.459448 0.206736 0  0.462294 0.180792 0  0.478933 0.227536 0  0.486793 0.21381 0  0.486322 0.251373 0  0.50065 0.215318 0  0.54005 0.175389 0  0.474633 0.189893 0  0.512916 0.208697 0  0.49531 0.199967 0  0.475889 0.175275 0  0.625 0.1 0  0.459311 0.153933 0  0.513645 0.242704 0  0.392892 0.248539 0  0.374815 0.271913 0  0.365974 0.14871 0  0.395312 0.109184 0  0.417061 0.123981 0  0.483196 0.277003 0  0.381967 0.179632 0  0.429898 0.219374 0  0.433473 0.206165 0  0.43149 0.181038 0  0.444208 0.215487 0  0.472985 0.247309 0  0.49375 0.3 0  0.475579 0.262714 0  0.49916 0.274293 0  0.501175 0.184809 0  0.514164 0.225681 0  0.543648 0.214977 0  0.5341630000000001 0.23481 0  0.527396 0.216171 0  0.5375 0.1 0  0.534548 0.202315 0  0.561545 0.192513 0  0.5494289999999999 0.201221 0  0.570923 0.218346 0  0.412582 0.149833 0  0.489327 0.264745 0  0.502439 0.254775 0  0.462391 0.271166 0  0.496775 0.241732 0  0.5294410000000001 0.268606 0  0.482812 0.291099 0  0.46879 0.285038 0  0.452663 0.284065 0  0.51789 0.257882 0  0.53408 0.252026 0  0.560142 0.243543 0  0.545708 0.243474 0  0.547532 0.229019 0  0.55282 0.265323 0  0.398971 0.153424 0  0.400349 0.135684 0  0.410135 0.168145 0  0.428823 0.161323 0  0.415266 0.183779 0  0.329687 0.0810483 0  0.395312 0.0612217 0  0.373437 0.318952 0  0.439062 0.324017 0  0.561816 0.229354 0  0.585029 0.239287 0  0.431827 0.139854 0  0.446796 0.168929 0  0.351562 0.07598340000000001 0  0.395313 0.318944 0  0.54337 0.150762 0  0.460937 0.31948 0  0.418412 0.137529 0  0.428125 0.1 0  0.442783 0.152332 0  0.450742 0.134294 0  0.373437 0.0805201 0  0.384383 0.342558 0  0.482812 0.318952 0  0.429239 0.127457 0  0.444274 0.117405 0  0.426548 0.113815 0  0.49375 0.1 0  0.488954 0.113984 0  0.457973 0.121842 0  0.471621 0.137346 0  0.515625 0.325257 0  0.48125 0.41 0  0.417187 0.07598340000000001 0  0.496363 0.126778 0  0.479043 0.155715 0  0.439062 0.0805201 0  0.481795 0.126919 0  0.471875 0.1 0  0.489227 0.142159 0  0.515625 0.1 0  0.520062 0.147117 0  0.501244 0.161791 0  0.505431 0.112984 0  0.505344 0.14029 0  0.526563 0.119081 0  0.5181750000000001 0.131908 0  0.539868 0.136937 0  0.460937 0.108383 0  0.474242 0.114415 0  0.460937 0.0810483 0  0.487841 0.167168 0  0.526563 0.0612217 0  0.526563 0.106406 0  0.537619 0.112743 0  0.58125 0.1 0  0.559375 0.1 0  0.482812 0.08105569999999999 0  0.471883 0.0587655 0  0.570312 0.129396 0  0.548437 0.07598340000000001 0  0.504687 0.08105569999999999 0  0.49375 0.0470127 0  0.570312 0.112663 0  0.592798 0.12103 0  0.553986 0.12103 0  0.570312 0.0805201 0  0.48125 0 0  0.114787 0.2 0  0.160769 0.284765 0  0.175816 0.288361 0  0.162602 0.116048 0  0.154687 0.07598340000000001 0  0.176562 0.0805201 0  0.0598995 0.147547 0  0.307812 0.109924 0  0.291279 0.117157 0  0.278491 0.112989 0  0.285937 0.07598340000000001 0  0.307812 0.0805201 0  0.296928 0.196743 0  0.318141 0.218507 0  0.330208 0.227509 0  0.301397 0.225668 0  0.302706 0.241401 0  0.292574 0.21424 0  0.282762 0.230935 0  0.284351 0.244775 0  0.269553 0.23261 0  0.278572 0.217242 0  0.226924 0.342606 0  0.446928 0.185396 0  0.515625 0.3 0  0.504687 0.288879 0  0.515256 0.276534 0  0.529479 0.285328 0  0.58125 0.3 0  0.541969 0.272936 0  0.559375 0.3 0  0.556796 0.282529 0  0.543473 0.287206 0  0.581429 0.267774 0  0.566728 0.271171 0  0.570869 0.255585 0  0.577404 0.283865 0  0.603125 0.3 0  0.597531 0.28035 0  0.570312 0.338778 0  0.592188 0.292492 0  0.603513 0.256094 0  0.614063 0.286265 0  0.610329 0.27064 0  0.632708 0.251285 0  0.657223 0.261594 0  0.618789 0.257807 0  0.614188 0.22987 0  0.630935 0.265614 
[...]
<PointData  Scalars="p"> 
	<DataArray  type="Float64"  Name="p"  format="ascii">
0.00047451325838420604 0.00042460002126493184 -1.565721643420686e-07 9.816470561542899e-08 0.0005270702940964585 0.0004933900656670906 9.706189038989168e-05 0.00011786506892652083 -0.0002906429474981927 -0.0003174338019471881 -0.00035384798639024587 -0.0003860432545707663 -0.00042327379182834806 -0.0004789421880546057 -0.0005760565049509716 -0.000717168345478335 -0.0008283239331491223 -0.0009950842159239135 -0.0007497130787960834 -0.00035249266119777 0.0001996721220865433 0.0008771115439227432 0.0014181612818442212 0.0017585512618680612 0.0017581191027668064 0.0014154075540376292 0.0008884902989644164 0.00022723933685443596 -0.0004061418632275036 -0.0006816503954756237 -0.0008564791746168727 -0.0007285298172338748 -0.000604723377673478 -0.0004714340267335931 -0.00037845024180176476 -0.00032565656730572796 -0.00029320096810257946 -0.00028344640664556826 -0.0002821463602615998 0.0001108044863202677 4.4323366783736374e-05 0.0011466621170651708 -0.00019043685588529562 6.447036073343761e-05 -3.6775184608217486e-05 -0.00012517096754047203 -0.00021065227427056853 6.989127119860102e-05 7.817977201993645e-05 0.0007475866791466913 9.60787900373716e-05 0.00012270937315124507 4.372055477910681e-05 0.0008246013920208526 5.5574123127893827e-05 0.0008058840840618024 1.1222575425515805e-05 0.0015683407695505805 -0.0004061819126941944 -0.0003080735675106522 -0.0002846262356090707 -0.0003447604235294476 0.0015221989520773644 0.0003365542272952992 0.0007411547854332906 -0.00031031902562688975 -0.0003839204249882443 0.0015264958789300855 0.0007199421405726041 -0.0003624647927772859 -0.0004839179155427408 -0.0001594200115186395 -0.00039126834377450556 -9.04792632955177e-05 -0.0002976112715225456 -0.0002924245058135362 -0.0005612284015840053 -0.0001768984603807439 0.0001844892482956909 -0.0006613355128568752 -0.0006709846735030013 -0.0003680427229276919 -0.0005683742067846629 -0.00028715956086644025 -0.0003122588972757467 -0.00026563552162982 0.001170420122862286 -0.0005718439201671784 -0.0003808378385366268 -0.0004663453896305357 -0.0002637278112025854 -0.0003127663639303409 0.00032542097754284884 -0.0001226049182317356 -0.0003590581180280228 -2.5503421134294585e-05 -0.00025915154125997944 -0.0004472612106268082 -0.00035756513277152767 0.0011753844647682068 0.0010298363745053175 0.0010289043528164494 0.0005293398055339645 0.00103978388820765 0.0010299270044956648 -0.00013622840034451918 -0.00038184242239890515 -0.0002751541693190076 -0.0002905912040053617 -0.000255122462641197 -0.00041781517468152373 -0.00019416277667627205 -0.00031849014593627597 -0.0003965901921985299 -0.0001586341864462683 -0.00030258553261850043 -8.815908938704053e-05 0.0013554946326562454 0.0008849614775009872 0.00023774808703805504 0.0013467980106915522 0.0008696319683358018 -0.00035825207146169207 -0.0002335964910074239 -0.0002731975868616263 -0.00020377708733215739 0.00036240099396951463 -0.00010644425349605211 -0.0003818348817452361 -0.00025364971934347676 -0.00028560295216783544 0.00016907013720631373 0.0004977592231331999 -0.0003656933678767049 -0.00025147143905954167 -0.00021124920067558116 0.00023798268303530093 0.00014101261092839664 0.0005101929400076473 0.00036356228031779713 0.0004468031710143332 0.0006618227915776404 -0.0002934631246198451 -0.00019695937577222754 0.0006390855278356615 0.000603699041847127 0.0007244368140426928 0.0004708411147123025 0.0005541422425901375 0.0005040838638823033 -0.00021191052631052033 -0.00021061257622153725 -0.0002562897859081371 -0.00013779229894392384 0.0004005944792860977 0.00023437289272801515 -0.0001598006960629636 0.0010936518516918787 0.0009247604218132946 0.0008858317753283126 0.0008335439557363676 0.0006892506952377451 0.0005565854049323395 0.0010819098697214524 0.000931306331351927 0.0005060404967921013 0.0008953104953563708 0.000834604266817538 0.0009936568844672344 -0.00028286451199521415 -0.0002602223853882742 3.400031589401952e-05 0.0002970428560902705 0.0006153948264662067 -0.00029970350065177754 -0.00020617996571459224 -0.0004017972681417053 -0.00022722490645950014 -0.00037549121933702796 -0.000301348053061311 -0.00037065386133946766 -0.0003870860666072047 -0.00038523635819756694 -0.0003168173919071723 -0.0003953823114964818 -0.0003488132686790715 -0.00037640968846293084 -0.00027561423850468403 -0.00033496725002633913 -0.0001979843945490512 -0.00038591085640690876 -0.000197456233357434 -0.00025598744777438403 -3.310918433712667e-05 0.0007106287256740862 0.0003920720567436965 3.3937208723036614e-05 0.00016362315695727953 0.0007098627377923627 0.0009597328350716512 -0.00024048126403059322 -0.00024347148154776001 -0.00016074092865565285 -0.0002541662832947522 -0.00014936503445784732 -0.0002491028091052994 -0.00023719115814555355 -0.00027089450577857705 -0.00023200550524221815 0.0006882183598765227 0.0006381937942451965 0.00043701043472588413 0.0007828798172913925 0.0005574503902630371 0.0005329326064471737 0.0004711172881300486 0.0004412649202552836 0.0005898822632711645 0.00034055855297442474 0.0005371086951025013 0.0008372906686200679 -7.122324631075226e-05 -0.0002692788365745856 -0.00029985118640505146 -0.0001237918014033379 -0.00010121621741471583 0.00045772218526557635 3.5152633649278784e-05 -0.00022369229279976303 -0.0001900514203527865 -0.00025213984693965927 -0.00020458374884153033 -0.00025620900523252944 -0.0003008970675998935 -0.00032045286154650464 0.0004111640794192472 -0.00020550512477439874 -0.00023535739326241902 9.731736765596813e-07 -0.00010675984756029395 -0.00024809072218105 -0.00012693679859808568 -2.812587879826151e-06 -0.0002435048129771542 -0.0002218914697537461 -0.00022950535011444714 -0.00027575211635347827 -0.0002935138350106307 -0.0002864028793264056 -0.0003288764259953406 -2.8424369309534825e-05 0.0003511945719723341 0.00047840099811916894 0.000519290162322248 0.0004098800922748762 -0.00030538345831279483 -0.00028228304518630265 -6.895655511155521e-05 8.012814611074595e-06 -7.958856389715844e-05 -0.00028833219806425215 -0.000287716119345313 -0.00030332194200902293 8.084341337409832e-05 0.0006688565054041509 -2.1458492391068508e-05 -0.00029105536317191905 -0.0003683844047643364 -0.00033129655568105355 -0.00022950945178427929 -0.00030422742418872734 -0.0002937412580756801 -0.00030363070469649364 -0.00033382432101266316 -0.00024783370085665254 -0.0002886891056678806 -0.00035122543855140687 -0.00026757151312198005 -0.00030112784343701315 -0.0001755781701536829 -0.00030486997546476917 -0.00025445645570392183 -0.00026526235756106777 -0.00015077227534496485 0.0001965893678675079 0.00021791860429460052 0.0006987991890782031 -0.00020994649349122282 -0.00026683136393251545 -0.0003287703238088391 -0.00033191050649577483 -0.00025964073004862816 -0.00010880649832860753 -0.0003725543789846098 -0.00019591274140147484 -2.7189932998141846e-05 -9.875954759315173e-05 -2.2568734620056292e-05 -8.826356153114977e-06 0.00010037945591270571 1.8568631717221487e-05 5.241419383519569e-05 -3.801385005066713e-06 5.44728078322052e-05 -4.490703591871773e-05 7.011833631156244e-05 2.6974790735840507e-05 -2.0257617035580182e-05 -8.811251779712615e-05 -7.067496015615423e-05 -6.353389536226239e-05 6.207098066810157e-05 -0.0001354445478303414 -1.1150852685163967e-06 -0.0001569566275793786 0.00011017836873228211 4.343392432619991e-05 4.688671155562083e-05 -0.00024635650993505223 7.897051879826665e-05 3.600664542620008e-05 -0.00018380198397725301 -0.00033350400654594633 2.391319771875601e-05 -6.320601370261191e-05 0.00012144851296029628 -2.2249214886390095e-05 3.649031631320131e-05 -0.00024434462113482886 -3.316269490510194e-05 -0.00012189834926583737 -0.0002878253143673446 0.0001503197889291416 -0.0003673554059920981 7.604027097146755e-05 -0.00014072527239777864 -0.00017127026205754413 -0.00031515569826659837 -0.00027864115140054395 -0.000352844580234261 0.00010938160388799486 -0.0003312107770784527 -0.0001383240122119236 -0.0002301511717424881 -0.00038814019545534444 -0.00013525304876462512 0.00010619449702347054 7.930693811163186e-05 0.00012481035746280078 9.640399845483905e-05 -0.0001398559855783668 3.844970698895905e-05 1.1069205660547301e-05 3.632048825835356e-05 1.2624018056858109e-05 -9.906735207914357e-08 5.629245404190059e-07 4.552762016431888e-05 1.9938672123738648e-05 -2.6854102879466672e-05 -0.00042229327938808576 0.00011456270931410514 0.00010023250976006554 0.00011605202918627485 9.597988943866207e-05 3.564648864032571e-05 9.123189225704191e-05 9.989027048766381e-05 8.952867693527048e-05 7.339574055962828e-05 3.183933995205061e-05 -3.937315646650061e-05 -1.8600810859100617e-08 3.351633469842003e-06 -2.8785425760307187e-05 -0.0003985742256762692 -0.0003900964486320879 -0.0004083897413394172 -0.0004371109600954136 -0.00036600040066790413 -0.00011696717217141229 -0.00010315729409909318 -8.091592952998375e-05 2.4664382968852126e-05 -2.877742209708711e-05 -9.889594814354215e-05 -0.0004086763934717263 -0.00040297612053079095 -0.0001196756052995412 -3.77641707345601e-05 7.932543725249761e-05 5.7313446927891456e-05 -0.00040010762220113265 -0.00022959404591716437 -0.00041407231952720003 -0.0003391672603769881 -0.0001507769738949828 -3.6046775790284464e-05 6.930902715501489e-05 -0.0003590559491006886 -0.00027502976563036573 -0.0003041576522829025 -9.861918546263624e-05 -0.0001348949811476213 -0.000261512283138372 -0.000261538295987982 7.653075814628185e-05 4.951188765010176e-05 -0.00013055382742668893 -0.00011443087848095757 -0.00026323832298082416 -0.00015426835602874747 -0.00018186391564697032 -0.00014629513534270884 -0.00018075158620087193 -4.165047774440021e-05 -2.1673245680446585e-05 -0.00014247191565295293 -6.771417457007629e-05 -8.971566245767016e-05 -4.642332005546962e-06 -2.8586203523630468e-05 6.389204645935134e-05 -0.000205668368995609 -0.0001738337877479499 -0.0001397341631739859 -0.00022671784048279605 -5.498006926281863e-05 -1.7608727871964637e-05 2.427972812057976e-05 8.750766612552525e-05 4.9853926561968276e-05 -9.291236974196826e-05 -9.77283158516803e-05 0.00013565698178137815 -9.482217981438043e-06 -7.884202075174882e-05 -7.418377380898738e-05 9.839677945030447e-05 0.0001555239317305152 7.850271666943045e-05 2.8345978724943308e-05 -8.724655386720938e-05 0.0013160979735253868 0.0001782371487706736 -8.2433447676244e-06 0.00018532606369652343 0.00032935925907788966 0.00022838725234921355 0.0007331370332947726 -0.00019390169008795817 -0.00020226081689474852 -0.00018448767694230258 -4.7958143119181834e-05 -8.795409266550658e-05 -0.00030518031679295044 -0.00035051823346257834 -0.00036397291408043624 -0.0003690376383482556 -0.0003954380671778233 -0.00034012878677434677 -0.00037231068238933427 -0.0003910487415900475 -0.0003697918613255107 -0.0003416406710939637 7.622613964509807e-05 -0.00034730402575258035 6.065283419762291e-05 7.625131670881334e-05 6.2509670288094e-05 3.6969685885354424e-05 1.2251949312704204e-05 3.498608784748207e-06 1.7762197783172002e-05 -1.2639344132973447e-05 1.3845575281889798e-05 -7.546309889077341e-05 -4.518577472265625e-05 -7.16912472209226e-05 -3.248654900933161e-05 -9.267627369753398e-07 -4.88073277393809e-05 7.954654772457579e-05 -1.8894454959319383e-05 -0.00010401804279275506 -2.885111564666664e-05 -7.036599251900547e-05 -7.669130599130093e-05 -1.3815506704505083e-05 -8.73412825651514e-05 -0.0001081187291934162 -5.5527366523996516e-05 -0.00010479181544897447 -1.9090075702499776e-09 -6.989240758954357e-05 1.4570396047686048e-05 -2.3324602761045136e-05 -2.1768976062872815e-05 -1.8232510630189462e-06 3.5764739091234704e-06 6.971324571056812e-05 4.538923984625769e-05 -8.106885646593031e-05 -9.914136143291835e-05 1.020231918259218e-06 5.211047047784113e-05 -8.412280584188889e-06 2.918665634234193e-05 2.048747013663828e-05 4.278669198522765e-06 1.2072217829499115e-05 1.143065294170667e-05 3.577231782505807e-05 3.0872240589973174e-05 -3.5142927115657395e-06 8.401387243418175e-05 -4.6512678708505465e-05 -3.218410871946896e-05 6.363148023126682e-05 1.0347746978546288e-05 5.4623468587835934e-05 -5.6721024348996765e-06 7.954251802030182e-05 5.6023170454192565e-05 0.00011881882233037335 6.868027068887489e-05 9.617995208287784e-05 4.288347189930934e-05 4.923048912274272e-05 3.109972838857289e-05 0.00010780866524106577 8.299405010811427e-05 6.962723666462993e-05 5.638883509317816e-05 6.77240348537994e-05 0.00011495154335126694 0.0001270894013332363 9.91722711093053e-05 0.00011836357344425751 9.559086978480917e-05 0.00012224434093047334 0.00012758964607919706 0.00013313281450263805 7.944492558899828e-05 8.193056274313343e-05 0.00010276005508435323 0.00011032387630791646 0.00012417561945359326 0.00011546126167887402 0.00012611303858968748 0.00011014211160678816 3.3166977396484244e-05 2.0397292192243455e-05 1.0647264595639632e-05 -2.102079989473173e-05 4.41446219800921e-06 0.00011342229556835729 0.0001286117031830616 0.0001329103557263515 9.891291267268278e-05 7.010745749142168e-05 -1.6292481350875417e-06 -3.487695773507457e-05 -1.363149428483772e-05 0.00013014801009337968 0.0001279771516444475 0.0001237709834281873 0.00012957099818287503 4.096949142396675e-05 8.923884760117032e-06 -2.9779390507836748e-06 0.00011558477946414827 0.00010426990737840723 0.0001212372685595886 0.00012351281562037397 7.428628474551422e-05 1.917957797802974e-05 6.032025504458115e-05 4.702659784472125e-05 0.00010042442745037169 0.00011389511318183419 0.00012103208449489218 0.00013336668522097647 0.00011396024515550645 9.190159311668097e-05 0.0001850076566491137 4.205604009904861e-05 0.0001058739102287521 8.797175163204803e-05 0.00012005383829029282 7.719088529768936e-05 4.739428898826292e-05 0.0001070990350590451 8.226940038568243e-05 6.946648344441075e-05 0.00015081690073705326 0.00012152181250188712 0.00012502296846391176 0.00012929436098420698 0.00016312770107132157 0.00014371173997918793 0.00016648211797602746 0.00017667103208953406 0.00017961817108426117 0.00019710768091113712 0.00016800473887198597 0.00017891109613569573 0.0001820617598264884 0.00014512538782920301 0.00011169248601721421 0.00015528783665079407 0.0001854231680693137 0.00012653910723461334 8.652350820561887e-06 8.023769057143063e-05 8.362902832011441e-05 5.754668920860106e-05 -4.6339583442918935e-05 0.00014096877485029037 0.00017328355606895603 0.00020112922878192768 0.0001523675652964042 9.035357858310313e-05 0.0001922815210678978 0.00018561354621832255 0.00020284363717174518 0.00017841788115953945 0.00018722881368637287 0.0001971939794982801 0.00018593866943623 0.00012309119657041888 0.00017141156897290582 0.00015692291948731714 0.00020332032814873136 0.0001962473856517182 0.00018933678939255755 0.00019364925960309903 0.0001834411276130921 0.0001771050161221114 0.00012466687173255593 7.457787041318276e-05 0.0001540864916140814 0.0001319061017611615 0.00011330718396866875 0.00011492626529758386 8.762690665983233e-05 0.00018982779577212167 0.00018641280523060854 0.00018345117867270185 0.00018011194703304757 0.0001688967826909647 0.00017843419442654566 0.00010063000609711319 5.127076471067547e-05 8.854501929923456e-05 0.00016230451101794443 0.00018359461194074447 8.267771403614103e-05 0.00020292133670091094 0.00015360099864322678 0.00017423219108007648 0.00018098640364444402 0.00018095376921150282 0.00016644176659523266 0.00014941888493756486 0.00014677242202404146 0.00011681241955825414 0.00020660816784613613 7.070299611783202e-05 0.00018765323373888835 8.272034139090798e-05 0.00010954508963857579 2.7742415867738293e-05 0.0001484570392402652 0.00013654589769460774 0.00011156493494135879 2.9852238577980537e-05 9.5305350615696e-05 9.473972981012051e-05 6.510335493021761e-05 0.00013108314573886295 6.786333369834051e-05 5.784545851945035e-05 9.822009505717932e-05 8.524179694252143e-05 0.00011956552174466718 0.00014439567337054372 0.00015177785789657588 -2.241900943754892e-05 -1.9083224228380807e-05 6.933398299890064e-05 -5.578919682030427e-05 -7.426379022377562e-05 -5.9189195253328654e-05 2.5644878955359614e-05 -1.9947650646175935e-05 7.048347327555348e-06 4.408742767555913e-05 4.3902090875241794e-05 -9.362981025939541e-05 8.112241550331348e-05 0.00029849442974585674 -4.929610591308998e-05 1.5651842036598857e-05 -0.00011578167220587643 -7.187953050778705e-05 5.1316075100450274e-05 0.00011874412490789963 4.170386797864053e-05 2.9332206849737127e-05 -3.951575829793615e-05 -2.2369759692855538e-05 0.00011433505946254148 -5.9276931561242364e-05 -2.095400673716065e-05 -9.123164590442953e-05 3.163758018863613e-05 3.854409022027128e-05 1.2018756857317984e-05 -1.613085459897262e-05 1.032166823269342e-05 3.746816347830223e-06 -9.357091240162595e-06 0.00019604988441981316 8.493010467199613e-05 -6.849369579338623e-05 0.0001181467934249206 -8.596271504405198e-05 -6.992915698343514e-05 0.00010064097236050491 5.461127013486263e-05 0.0005882982829995081 0.00045114890493286097 9.004069087620703e-05 0.00016955841731124355 0.00010324982558883201 9.557639236713311e-06 -7.748122391981872e-05 -6.831986098659801e-05 -2.224642011042532e-05 -4.429474880626876e-05 1.6992403145942972e-05 3.713137153176688e-05 -5.8486807946456593e-05 0.00021796828890458214 0.000463424698170795 0.00041105215997088525 0.0004281957278220673 -4.9425750821011594e-05 5.130888026489684e-06 0.00044089300040568583 0.00041175138440471874 -1.4115914804256126e-06 0.0006550149155920313 -6.06956718999078e-05 -5.87973471981959e-06 -1.1476957728583713e-06 3.932587539007136e-05 0.0002931338224129243 0.0004733785237197535 -6.434971123769864e-05 -1.7252671816969922e-06 6.033511456235346e-05 0.00036253444860853554 -1.6353066651209438e-05 0.0005807548707847451 0.00017139096815918525 0.00015533251653860876 0.00010043423370832007 0.0004877788597350608 0.00017253211220434898 0.0001217913233475758 0.00016316132699245538 0.0001999216270369448 0.00018800515480735518 3.436678887833196e-05 6.0267362749478016e-05 3.710240208505562e-06 1.5416394491989052e-05 6.679432555607343e-05 0.00016029675141495704 6.627886346114576e-05 0.00041574041780638346 -1.7640607200303923e-05 1.1235455802236134e-05 0.00038550270232365705 0.0005947679376092491 6.882718684418763e-05 4.323493360080752e-05 2.5794086921529443e-05 7.322598869564583e-05 0.0007682664281771054 0.0004836620434768952 -6.439375532310614e-06 0.0006763377179912328 6.572816894786567e-05 9.436478997928149e-05 0.0005082142606896415 9.59731751197806e-06 2.839081065339916e-05 4.831882910226735e-05 0.00047062802651528916 8.835742205291477e-05 0.0004756782829231196 0.0004706894407031514 3.944862643269854e-05 0.00010594730206495265 0.00012328819408033643 3.1823946003964065e-05 8.364822046221434e-05 7.368402684073158e-05 0.00010171534715673969 0.00010147008636764897 0.00011550108936652471 0.00011286496670447975 0.0001148210733321274 0.00010197368638308209 7.24918791220178e-05 9.218684066098656e-05 -1.4458988148180444e-05 0.00011738618412910678 9.978874473851705e-05 0.00011376160688885322 0.0001159981988381094 0.00010236862487488391 0.0001120456129289052 6.987559794257622e-05 0.0001305660185251447 0.00017474990719861466 0.00015262008863130825 0.00016168507978676092 0.00014071384256549667 0.0001484053146259414 0.00017563143494792995 0.00015530454615286806 0.000179233554303291 -1.4027502408779498e-05 7.359515487620968e-05 4.848295014406732e-05 0.00026760429785457966 0.0004377177521222905 0.000404671337114242 0.0004581893446121877 -1.4979720129851114e-05 -2.344166012207943e-05 2.9135289743319443e-05 0.000431340014916369 0.00032948054320523616 0.00014426238124150588 0.00019471441266969837 0.0003942450278206559 4.945108705132998e-05 0.000762231170917764 0.0007357248659189272 3.141038794544319e-05 8.57958925907767e-06 9.759200835986437e-05 4.953502298712603e-05 0.00010723474668800014 6.385912539171069e-05 0.00011656801339038992 4.34143328699701e-05 5.451984997334459e-05 0.00010855551195802549 1.0370477246549396e-05 7.539099081580418e-05 0.00012051505534532815 0.00016275217810223386 3.6148716734131924e-05 2.6465229725802615e-05 2.1262195095060476e-05 3.9563363604696964e-05 1.9981687517324834e-05 5.781970389506