<?xml version="1.0"?>
<VTKFile type="UnstructuredGrid"  version="0.1"  >
<UnstructuredGrid>
<Piece  NumberOfPoints="1289" NumberOfCells="2413">
<Points>
<DataArray  type="Float64"  NumberOfComponents="3"  format="ascii">0 0 0  0 0.41 0  2.2 0.41 0  2.2 0 0  0.1 0.1 0  0.1 0.3 0  0.8 0.3 0  0.8 0.1 0  0.25 0.2 0  0.248976 0.210065 0  0.245948 0.219718 0  0.241038 0.228563 0  0.234448 0.23624 0  0.226448 0.242432 0  0.217365 0.246888 0  0.207571 0.249423 0  0.197468 0.249936 0  0.187467 0.248404 0  0.17798 0.24489 0  0.169395 0.239539 0  0.162062 0.232569 0  0.156283 0.224265 0  0.152293 0.214968 0  0.150257 0.205058 0  0.150257 0.194942 0  0.152293 0.185032 0  0.156283 0.175735 0  0.162062 0.167431 0  0.169395 0.160461 0  0.17798 0.15511 0  0.187467 0.151596 0  0.197468 0.150064 0  0.207571 0.150577 0  0.217365 0.153112 0  0.226448 0.157568 0  0.234448 0.16376 0  0.241038 0.171437 0  0.245948 0.180282 0  0.248976 0.189935 0  1.1 0 0  1.1 0.41 0  0.1 0.2 0  0.45 0.1 0  0.45 0.3 0  0.55 0 0  0.275 0.1 0  0.275 0.3 0  0.275 0 0  0.55 0.41 0  0 0.205 0  0.825 0 0  0.825 0.41 0  0.275 0.41 0  0.1 0.15 0  0.1875 0.1 0  0.1 0.25 0  0.1875 0.3 0  0.132322 0.2 0  0.241426 0.253518 0  0.241426 0.146482 0  0.264574 0.17974 0  0.264574 0.22026 0  0.138434 0.187348 0  0.153372 0.150948 0  0.148413 0.164094 0  0.176495 0.136535 0  0.22768 0.143571 0  0.138434 0.212652 0  0.148413 0.235906 0  0.176495 0.263465 0  0.22768 0.256429 0  0.23125 0.3 0  0.24769 0.24094 0  0.23125 0.1 0  0.24769 0.15906 0  0.26253 0.193641 0  0.190482 0.137872 0  0.166753 0.146661 0  0.157737 0.244461 0  0.190482 0.262128 0  0.203107 0.261264 0  0.253635 0.22977 0  0.203107 0.138736 0  0.253635 0.17023 0  0.261028 0.206206 0  0.167707 0.251809 0  0.143629 0.224191 0  0.215302 0.2591 0  0.270465 0.245894 0  0.215302 0.1409 0  0.270465 0.154106 0  0.284052 0.202587 0  0.14375 0.3 0  0.209375 0.3 0  0.225966 0.278501 0  0.209375 0.1 0  0.225966 0.121499 0  0.211613 0.273759 0  0.211613 0.126241 0  0.143629 0.175809 0  0.1 0.175 0  0.133484 0.164832 0  0.144491 0.249539 0  0.1 0.225 0  0.133484 0.235168 0  0.3625 0.3 0  0.25691 0.253381 0  0.25691 0.146619 0  0.277205 0.188698 0  0.184724 0.275712 0  0.237372 0.268285 0  0.184724 0.124288 0  0.237372 0.131715 0  0.197578 0.273149 0  0.193656 0.286994 0  0.197578 0.126851 0  0.193656 0.113006 0  0.122953 0.187671 0  0.118362 0.153758 0  0.155372 0.258107 0  0.122953 0.212329 0  0.118362 0.246242 0  0.276394 0.27264 0  0.276394 0.12736 0  0.280965 0.170013 0  0.253125 0.3 0  0.14375 0.1 0  0.253125 0.1 0  0.269489 0.26014 0  0.269489 0.13986 0  0.303639 0.184297 0  0.165625 0.3 0  0.134742 0.273113 0  0.257831 0.274737 0  0.255279 0.128499 0  0.3625 0.1 0  0.165625 0.1 0  0.162031 0.132368 0  0.134955 0.126405 0  0.149334 0.125568 0  0.142936 0.139597 0  0.12695 0.140259 0  0.242514 0.285501 0  0.242514 0.114499 0  0.1 0.125 0  0.117483 0.12555 0  0.11154 0.139776 0  0.121875 0.1 0  0.109143 0.1125 0  0.126805 0.114 0  0.220313 0.29129 0  0.351562 0.287369 0  0.207222 0.2866 0  0.220312 0.10871 0  0.1375 0 0  0.20625 0 0  0.207222 0.1134 0  0.11722 0.17118 0  0.1 0.1625 0  0.0778409 0.16875 0  0.0862762 0.15625 0  0 0.15375 0  0 0.1025 0  0.11722 0.22882 0  0.1 0.2375 0  0 0.3075 0  0.0862762 0.23125 0  0.0598995 0.222547 0  0.0860223 0.2125 0  0.289584 0.181469 0  0.300267 0.16446 0  0.163832 0.269071 0  0.149597 0.273325 0  0.1 0.275 0  0.268498 0.285953 0  0.31875 0.3 0  0.294154 0.254672 0  0.296875 0.3 0  0.293558 0.271845 0  0.285095 0.286799 0  0.324298 0.264316 0  0.307866 0.263745 0  0.317093 0.234901 0  0.315485 0.281219 0  0.316547 0.250625 0  0.344693 0.243731 0  0.331592 0.251147 0  0.35129 0.270663 0  0.338689 0.263683 0  0.340625 0.3 0  0.249849 0.264383 0  0.265097 0.11422 0  0.284688 0.156136 0  0.242188 0.324017 0  0.0856613 0.2625 0  0.132812 0.0612217 0  0.264062 0.0612217 0  0.198437 0.07598340000000001 0  0.0860223 0.1375 0  0.0794526 0.191089 0  0.285228 0.140397 0  0.298655 0.148737 0  0.31875 0.1 0  0.327335 0.15374 0  0.296875 0.1 0  0.312289 0.155283 0  0.313348 0.135607 0  0.321802 0.173916 0  0.298433 0.134116 0  0.112124 0.2625 0  0.127526 0.259083 0  0.121875 0.3 0  0.0682687 0.241503 0  0.1 0.2875 0  0.117762 0.28125 0  0.107813 0.3 0  0.103906 0.313849 0  0.0778409 0.28125 0  0.1375 0.41 0  0.0862762 0.29375 0  0.08886860000000001 0.24375 0  0.307812 0.338778 0  0.307812 0.292227 0  0.33216 0.279164 0  0.387888 0.266414 0  0.264063 0.31948 0  0.110937 0.07598340000000001 0  0.242188 0.07598340000000001 0  0.319914 0.11839 0  0.340625 0.1 0  0.334448 0.133793 0  0.329687 0.108539 0  0.346259 0.118491 0  0.360334 0.173636 0  0.327539 0.205033 0  0.132812 0.288712 0  0.362436 0.278836 0  0.368105 0.259418 0  0.4125 0.41 0  0.329687 0.324017 0  0.329687 0.292306 0  0.285938 0.318952 0  0.417187 0.338778 0  0.324481 0.14148 0  0.351562 0.106771 0  0.40625 0.1 0  0.341028 0.168342 0  0.319221 0.190479 0  0.335292 0.184501 0  0.305563 0.20794 0  0.220313 0.31948 0  0.132812 0.332772 0  0.0865876 0.311259 0  0.0598995 0.302453 0  0.0906541 0.343255 0  0.353543 0.255837 0  0.36574 0.237633 0  0.405007 0.254279 0  0.275795 0.352123 0  0.4125 0 0  0.35493 0.137394 0  0.366563 0.120618 0  0.35917 0.205246 0  0.198438 0.318952 0  0.0626109 0.263892 0  0.40625 0.3 0  0.354809 0.155936 0  0.386512 0.146872 0  0.373101 0.159939 0  0.384375 0.1 0  0.343394 0.19929 0  0.350682 0.185683 0  0.368101 0.189748 0  0.344016 0.221511 0  0.391108 0.213329 0  0.376279 0.204783 0  0.398843 0.182768 0  0.375804 0.222746 0  0.390665 0.196958 0  0.394004 0.23518 0  0.359883 0.222828 0  0.419908 0.204359 0  0.404243 0.204783 0  0.412615 0.224526 0  0.20625 0.41 0  0.165625 0.325257 0  0.0347982 0.244954 0  0.379558 0.247154 0  0.34165 0.147603 0  0.372264 0.136992 0  0.388988 0.121989 0  0.373437 0.108554 0  0.351562 0.31948 0  0.391367 0.16527 0  0.399572 0.223324 0  0.452011 0.227371 0  0.40877 0.239392 0  0.431491 0.237337 0  0.421224 0.250459 0  0.449619 0.262098 0  0.418865 0.276779 0  0.437063 0.252274 0  0.415673 0.263227 0  0.430988 0.266772 0  0.402767 0.273419 0  0.452967 0.244883 0  0.428125 0.3 0  0.408502 0.286186 0  0.384375 0.3 0  0.392267 0.285807 0  0.465927 0.219339 0  0.43489 0.283846 0  0.376424 0.286289 0  0.625 0.3 0  0.473533 0.205186 0  0.461713 0.255517 0  0.5375 0.3 0  0.465725 0.235405 0  0.44631 0.201425 0  0.471875 0.3 0  0.494307 0.227729 0  0.459448 0.206736 0  0.462294 0.180792 0  0.478933 0.227536 0  0.486793 0.21381 0  0.486322 0.251373 0  0.50065 0.215318 0  0.54005 0.175389 0  0.474633 0.189893 0  0.512916 0.208697 0  0.49531 0.199967 0  0.475889 0.175275 0  0.625 0.1 0  0.459311 0.153933 0  0.513645 0.242704 0  0.392892 0.248539 0  0.374815 0.271913 0  0.365974 0.14871 0  0.395312 0.109184 0  0.417061 0.123981 0  0.483196 0.277003 0  0.381967 0.179632 0  0.429898 0.219374 0  0.433473 0.206165 0  0.43149 0.181038 0  0.444208 0.215487 0  0.472985 0.247309 0  0.49375 0.3 0  0.475579 0.262714 0  0.49916 0.274293 0  0.501175 0.184809 0  0.514164 0.225681 0  0.543648 0.214977 0  0.5341630000000001 0.23481 0  0.527396 0.216171 0  0.5375 0.1 0  0.534548 0.202315 0  0.561545 0.192513 0  0.5494289999999999 0.201221 0  0.570923 0.218346 0  0.412582 0.149833 0  0.489327 0.264745 0  0.502439 0.254775 0  0.462391 0.271166 0  0.496775 0.241732 0  0.5294410000000001 0.268606 0  0.482812 0.291099 0  0.46879 0.285038 0  0.452663 0.284065 0  0.51789 0.257882 0  0.53408 0.252026 0  0.560142 0.243543 0  0.545708 0.243474 0  0.547532 0.229019 0  0.55282 0.265323 0  0.398971 0.153424 0  0.400349 0.135684 0  0.410135 0.168145 0  0.428823 0.161323 0  0.415266 0.183779 0  0.329687 0.0810483 0  0.395312 0.0612217 0  0.373437 0.318952 0  0.439062 0.324017 0  0.561816 0.229354 0  0.585029 0.239287 0  0.431827 0.139854 0  0.446796 0.168929 0  0.351562 0.07598340000000001 0  0.395313 0.318944 0  0.54337 0.150762 0  0.460937 0.31948 0  0.418412 0.137529 0  0.428125 0.1 0  0.442783 0.152332 0  0.450742 0.134294 0  0.373437 0.0805201 0  0.384383 0.342558 0  0.482812 0.318952 0  0.429239 0.127457 0  0.444274 0.117405 0  0.426548 0.113815 0  0.49375 0.1 0  0.488954 0.113984 0  0.457973 0.121842 0  0.471621 0.137346 0  0.515625 0.325257 0  0.48125 0.41 0  0.417187 0.07598340000000001 0  0.496363 0.126778 0  0.479043 0.155715 0  0.439062 0.0805201 0  0.481795 0.126919 0  0.471875 0.1 0  0.489227 0.142159 0  0.515625 0.1 0  0.520062 0.147117 0  0.501244 0.161791 0  0.505431 0.112984 0  0.505344 0.14029 0  0.526563 0.119081 0  0.5181750000000001 0.131908 0  0.539868 0.136937 0  0.460937 0.108383 0  0.474242 0.114415 0  0.460937 0.0810483 0  0.487841 0.167168 0  0.526563 0.0612217 0  0.526563 0.106406 0  0.537619 0.112743 0  0.58125 0.1 0  0.559375 0.1 0  0.482812 0.08105569999999999 0  0.471883 0.0587655 0  0.570312 0.129396 0  0.548437 0.07598340000000001 0  0.504687 0.08105569999999999 0  0.49375 0.0470127 0  0.570312 0.112663 0  0.592798 0.12103 0  0.553986 0.12103 0  0.570312 0.0805201 0  0.48125 0 0  0.114787 0.2 0  0.160769 0.284765 0  0.175816 0.288361 0  0.162602 0.116048 0  0.154687 0.07598340000000001 0  0.176562 0.0805201 0  0.0598995 0.147547 0  0.307812 0.109924 0  0.291279 0.117157 0  0.278491 0.112989 0  0.285937 0.07598340000000001 0  0.307812 0.0805201 0  0.296928 0.196743 0  0.318141 0.218507 0  0.330208 0.227509 0  0.301397 0.225668 0  0.302706 0.241401 0  0.292574 0.21424 0  0.282762 0.230935 0  0.284351 0.244775 0  0.269553 0.23261 0  0.278572 0.217242 0  0.226924 0.342606 0  0.446928 0.185396 0  0.515625 0.3 0  0.504687 0.288879 0  0.515256 0.276534 0  0.529479 0.285328 0  0.58125 0.3 0  0.541969 0.272936 0  0.559375 0.3 0  0.556796 0.282529 0  0.543473 0.287206 0  0.581429 0.267774 0  0.566728 0.271171 0  0.570869 0.255585 0  0.577404 0.283865 0  0.603125 0.3 0  0.597531 0.28035 0  0.570312 0.338778 0  0.592188 0.292492 0  0.603513 0.256094 0  0.614063 0.286265 0  0.610329 0.27064 0  0.632708 0.251285 0  0.657223 0.261594 0  0.618789 0.257807 0  0.614188 0.22987 0  0.630935 0.265614 
[...]
<PointData  Scalars="p"> 
	<DataArray  type="Float64"  Name="p"  format="ascii">
0.0004748950717262128 0.00043179332060625636 -6.744948770929641e-08 6.151720139384226e-08 0.0005268096326130623 0.0005004885884964886 6.76171955461166e-06 0.00018806210731630023 -0.0002924476597970882 -0.00031304298307251405 -0.0003358366175034083 -0.00035410270488216226 -0.00038364471555887825 -0.00043858723213542324 -0.0005362230583746809 -0.0006815689691332043 -0.0007986186389655021 -0.0009759175576944123 -0.000743912967358636 -0.0003555815712454219 0.0001903381190399342 0.0008684790181245633 0.001412406340969798 0.0017591911161174074 0.0017647753772636568 0.0014279558353353834 0.0009033152599697281 0.00024163825767943895 -0.0003970719351754871 -0.0006848220605595538 -0.0008735954412106961 -0.0007568181404040055 -0.0006391191794674783 -0.0005099831005516093 -0.00041715852074536837 -0.00036336394511293557 -0.00032294529624162747 -0.0002998358232276646 -0.0002883446275202673 9.831958441297231e-05 0.00011575269528743648 0.001150151092184124 -0.00010293607935160742 -1.5368700365630544e-05 -2.7735848525714344e-05 -0.00012315224292965343 -0.00020164165493876407 8.153827656198336e-05 0.00012347024165722343 0.0007513519805881467 0.00020340316191658613 3.248731596674476e-05 4.4780589600445637e-05 0.0008271963420952983 4.603979218174959e-05 0.000810325499274524 2.7099623186563364e-05 0.0015718036880718565 -0.00036415349075967794 -0.0003483583055521326 -0.0003022131625179054 -0.0003269423205347244 0.0015293980968131174 0.0003422574171653652 0.0007512333689934039 -0.00031793981718627274 -0.00042256614665314734 0.001526297552826015 0.0007161913725525205 -0.00035034416671791355 -0.0004437297986824101 -0.00013896943173781509 -0.0003512287459591468 -0.0001040767555015641 -0.00033525712526923264 -0.00029797239358267955 -0.0005785292928453839 -0.00017511390344746757 0.00018193117351157645 -0.000641288524805151 -0.0006400455514831025 -0.0003380646107957925 -0.0005973977917446789 -0.0003150960991356789 -0.00030861793139074043 -0.0002625466781609346 0.0011662401034280355 -0.0005351906029100313 -0.0003323227510720848 -0.0005015611334188871 -0.00030758321598288327 -0.0003134628628091055 0.0003358771586833502 -0.00010286749259372113 -0.0003289439321813749 -3.836323025779273e-05 -0.000285047543365474 -0.00041965423793049425 -0.0003813985812572422 0.0011861830831594474 0.001033317925442365 0.0010349223395844011 0.0005313436873760079 0.0010431759271503655 0.001030571030412131 -0.00026105139293994625 -0.00033196138447349176 -0.00032221678203293717 -0.0002997929639251725 -0.00023879109236803536 -0.00037820005700294287 -0.00020490561452022417 -0.0003552289500593377 -0.00037477050477833997 -0.00014034183380985364 -0.0003205962061937785 -0.0001010624345530586 0.0013605076164206577 0.0008881000354335614 0.00024215260996488994 0.0013487766143463194 0.0008732092887126095 -0.0003225708918473333 -0.0002610520091759624 -0.00029879392146424865 -0.0001852374263873819 0.0003587616392669706 -0.00011719997078164886 -0.0003306848837399339 -0.00029859394125214436 -0.00029313081923462 0.0001819370650375964 0.0005049390122118032 -0.0003279356918287352 -0.00028899858681962306 -7.050176867314756e-05 0.00023185097680832357 0.0001382269895500806 0.0005095682968408981 0.0003612961998602459 0.00044894468121575286 0.00066363300447404 -0.0002657876950206781 -0.00021829663980671166 0.0006401144708443346 0.0006041802156716276 0.0007262417342716048 0.0004692875909303523 0.0005541124677247367 0.0005030191713146211 -0.00018872620458732476 -0.00035037020121719484 -0.00023412853538891092 -0.00015518833453382854 0.00039561848611430276 0.00023105487725656154 -0.0001766418084137392 0.0010976516597786053 0.0009279167261203505 0.0008891098864968414 0.0008362405588865893 0.0006922084204797175 0.0005584770083403988 0.0010847907847494486 0.0009352561492037802 0.0005117442266553338 0.0008991946682470064 0.00083848994035554 0.0009975079012329651 -0.00029617541000600135 -0.00027349307463290677 4.296048544033513e-05 0.00030500567525353653 0.0006212343182566697 -0.0002785239592460597 -0.0002528481425913149 -0.00036967006929117843 -0.0002422113019540729 -0.00036289656317254433 -0.00029272482881313803 -0.000434127375871552 -0.00039393581909888495 -0.00040674669688325513 -0.0003652279221998471 -0.0004188992181910823 -0.00047791674222482055 -0.00045560376629729196 -0.0004440862949602261 -0.0004543232073046267 -0.00028818904001145184 -0.00034090520566464625 -0.00021544392575520975 -0.00029009107689649874 -1.9509805843709577e-05 0.0007156577775203168 0.00038820930565256487 3.891526528840401e-05 0.00015586660683178187 0.0007119869322313102 0.000963120456744422 -0.00027461517968192404 -0.00026003191613943496 -0.00010181695654305939 -0.00020129928376758056 -0.00012704858251749178 -0.00023895757573664058 -0.000207332962324983 -0.00025451146978063905 -0.00023797316082075552 0.0006934823072989849 0.0006429967575497142 0.0004455502459696424 0.0007870153350075858 0.0005640468174119507 0.0005399160592353542 0.00047866657262606667 0.00044918704705948406 0.0005954433023352097 0.000352355430957411 0.0005434130259895168 0.0008415988756101624 -8.71290028493221e-05 -0.0003011829447666834 -0.0003961400308714153 -0.0003894195580158617 -9.308168730120007e-05 0.0004559895952356841 3.102845843648589e-05 -0.00015729166518968306 -8.967326304187351e-05 -0.00015037406506322414 -0.00011697377301096132 -0.00011051230659077993 -0.0001865997273164448 -0.00034112556720954367 0.00041946770679668094 -0.00039383594878351013 -0.0004702198400236251 -4.870427217246578e-05 -0.00014890408344555206 -0.0003274727666229476 -0.00013050274454902148 -7.377603966468218e-05 -0.00018767522085640068 -8.83260174338195e-05 -7.18970143551926e-05 -0.00020455185706594613 -0.0002981204170485085 -0.0002669787690616006 -0.0003368053132752053 -1.2035135772503404e-05 0.00036173946100533213 0.00048541624352798566 0.0005250544889196999 0.00041801307837299474 -0.00048299039576958814 -0.0004828308444501824 -0.00034914978369187473 9.445258172669382e-06 -3.101904522004268e-06 -0.0001104394603451819 -8.540400339664703e-05 -0.00034689209889729157 9.65862857442915e-05 0.0006736432647795077 -0.00016360968861657497 -0.00014160944362298118 -8.390184090699278e-05 -0.00011902328403074638 -6.629210216075743e-05 -0.0003209312518429103 -0.00025228712978864654 -0.00025298520357590587 -0.00041857581210229846 -0.0003542136017166193 -0.0003320419578265083 -0.00017389518240942513 -0.0004306918748484764 -0.00026334119936212517 -0.0004214648631506489 -0.0004358597627540865 -0.0002329040902326162 -0.0002804905755668716 -0.00032563487364163266 0.00020851982007726483 0.0002310128069315268 0.000703123708563211 -0.0004723626300971737 -0.00015386614011797943 -8.647912247270812e-05 -7.882546634984782e-05 -7.876294726413154e-05 -0.00017772679121162298 -0.00011618373237737177 -0.0003746269223758378 -0.00011045961712614372 -0.0003527120599448659 -0.00021653567524624725 -0.0002531061110197561 -3.5904996507875986e-05 -0.0001847262039240751 -0.00014103368577443904 -0.0002529103242173722 -0.00014463062822134656 -0.0002843889056750363 -5.546663124473138e-05 -9.090995523378077e-05 -0.00020773054083445764 -0.0002349318839110067 -0.0002729483104213102 -7.461195925849154e-05 -8.211966749553524e-05 -0.0003224159009965698 0.00015116225463586942 -0.00011279681819367531 2.5591182398041054e-05 0.00019799857244175487 -1.5359678296144942e-05 -0.00016571734368213268 5.9578918698607204e-05 5.0333327256563686e-05 -0.0001299140116853763 -0.0001887928196164364 1.0010637717975431e-05 -5.225756450447747e-05 0.0001361391156512418 -2.6883489284798946e-05 -0.00017915390807588387 -0.00017604180670486658 -6.955734553010392e-05 -0.00013474976411057742 -0.00022706277567975078 1.8753061031222094e-05 -0.00021663172993038025 0.00017745050312691576 -0.00041912410917191743 -0.0004029859077261441 -0.0001071755985950707 -7.61375845836649e-05 -0.00010831368486789868 0.00013614646450566017 -0.00018063608064525002 -0.00023418012566983124 -0.00020007041684053857 -0.0001559813095768223 -0.00016642209910157428 6.512672537945137e-05 0.00012290736218372784 0.00010735556389463315 0.00019084066406098123 -0.0002193613745645156 6.870768966898938e-05 5.485700413169793e-06 0.0001474254955051719 -6.810664165577735e-07 -6.494069901600328e-05 -9.001576347046683e-05 -6.152013901408703e-05 -6.493461296608427e-05 6.071649275767355e-05 -0.0001012200198990373 0.00016456565042098246 0.00019595559184637748 4.888442627006955e-05 0.00013684433197713153 0.0002526872618376673 0.0001108905743597517 6.874648837688674e-05 -1.1404688276920458e-07 0.00023801334031941756 0.00023646568794101497 0.0002028961787013977 0.00020333189301231046 0.00010720643234055141 0.0002643113923345888 -9.385629108176956e-05 -8.666461548139875e-05 -0.00012252591083286156 -0.00013414422961737646 -0.00016246980731019246 -5.42385306772899e-05 -1.5518936189561925e-05 -0.00017456753130180744 -4.508137560643532e-05 0.00011647270070260975 0.0001689119053136325 -0.00014118563904429862 -0.00017030960436058325 -3.8763223072642153e-05 -0.00013723902196628154 -0.00015860264843227934 7.529258869884387e-06 -0.00011160242566874272 -8.900863812478737e-05 -0.00016952637443428566 -0.00018476891820224279 -4.322645052428126e-05 -9.769901466097735e-05 5.672663301030452e-05 -0.00013364287486068837 -0.00014370591831566095 -0.0001162001735290395 -0.00010759074225415014 -0.0001627803818340923 -0.00017736953184862395 -0.00023106499179745225 0.0001142968941752885 3.970111028134106e-06 -2.928394552635892e-05 -0.00020517461525052807 -0.0002582330801207106 -5.3445816751949494e-05 -0.00021372291365812944 -0.00010851598498328244 -0.00025552128988109817 -8.914801390364009e-05 -0.00022928260484870918 -0.00027581734800356534 -0.00014281988363392967 -0.00024409375756326757 -0.00013271256988038618 -0.00019284724927674617 -0.00014241153521296165 -0.00013998079409109518 -0.0001638841203810419 -6.179056658806297e-05 -0.00026040164324142443 -2.4038146599997372e-05 -9.835052929827087e-05 -9.193512178956573e-05 -2.5035854604949755e-05 -5.044697994921196e-05 -4.8289643582721415e-05 -2.435494214303054e-05 -3.881069578666723e-05 -3.648646377215589e-05 -5.463704667696314e-05 -3.7722581613868997e-06 -3.3913197700152505e-05 6.7757542835409846e-06 -7.250004288046529e-05 -4.4040816904301316e-05 -1.5576926758768056e-05 0.0013196813159067555 0.00018929975715067409 6.039441054150663e-06 0.00018055140689726234 0.0003239488949057585 0.00022122314183844506 0.000735923877708998 -0.00015171264824507603 -0.0001976749413517048 -0.00019020908347112752 -3.0352771386109492e-05 -5.3281927962528135e-05 -0.0003116696923930253 -0.0003737145567855771 -0.0004171840059734004 -0.00036393982304189026 -0.000381949133150639 -0.00033627493275956746 -0.0003450103595701833 -0.0003504114568342251 -0.00033634527706016777 -0.0003292073184127258 8.937852740018902e-05 -0.0001714556848652701 0.00016765765457458376 0.00017469230762454498 0.00022320921841091304 0.00022437026670661385 0.00019918921789862786 0.0002563943604655077 0.0002045520524557333 0.0002350933950728377 0.00022795614976772177 0.00023095358368086964 0.00023983975119216204 0.00023470942268537782 0.00022210622875340415 0.00017860239822145552 0.0001882863657818648 0.0001685837916242246 0.00019035664907446614 0.00018391008621997888 0.0001587830213365923 0.0001679533189875379 0.00010496709734595275 3.254746116293485e-05 0.00014652007772264614 0.00011855951928852109 0.00011181599818088297 0.00013297365965813025 9.826909681050204e-05 7.53742252110128e-05 5.0905899887120686e-05 0.0001169813715929303 7.61447750710176e-05 0.00012508713921067585 5.1662907695837534e-05 0.00016200177999554677 0.0001862082116855781 0.0002025564340072159 0.00021020997265321813 8.804670910342846e-05 -3.6468858603718055e-05 0.00013007830116831077 0.0001843633960765276 -4.251653069762361e-06 8.11594902709026e-05 -1.3064862511750246e-05 5.344321408612204e-05 1.4946389796090886e-05 -3.47256969233016e-05 5.609548869202537e-06 -7.281568910486323e-05 5.601007571037453e-05 3.879438717914444e-05 -6.202779097928701e-05 5.8218647717663885e-05 0.00010225537319443 2.4109691132889843e-05 -5.535172419684311e-05 -1.2126319096235267e-05 -2.037976391559455e-05 -1.5767609499686734e-05 -3.4198726457804346e-05 2.3643943940152524e-05 1.2743564137815885e-05 3.599994634833032e-05 -6.815560474197339e-05 1.092854142622488e-05 4.273720498042538e-06 2.059217943596167e-05 1.7351922357323477e-05 2.9632497782339274e-05 6.985238417517872e-05 -7.301886652431735e-06 1.9656295116092916e-05 2.0548399499418197e-05 4.2142527420759645e-05 -3.5844537215643374e-05 4.834312513228016e-05 1.2187166921218345e-05 1.9888422118778554e-05 2.300197960698793e-05 2.7364558800606347e-05 4.737192327741484e-05 2.85948321413705e-05 3.8712465374168134e-05 1.349109185852057e-06 1.3931315646954407e-06 4.4237818701826964e-05 0.00016461732104954512 0.000149074306153112 3.361696567182702e-05 -6.197995894605484e-05 5.001634231797408e-05 1.4791091105219116e-05 9.01051986125011e-05 -5.7553817080751235e-06 0.0001518238149607593 6.45997864091984e-05 0.00010054868920930135 -1.9650941677330083e-05 1.2607089751498378e-05 6.995795369232492e-05 4.536959284932412e-05 1.2649611551154834e-06 0.00018041834692086718 6.045231049015347e-05 2.387372591170922e-05 6.26324707556926e-05 -5.113535205391331e-06 7.892554862710892e-05 9.611675350970099e-05 0.00012028564484206738 0.0001086401630206594 0.00012543726844817794 9.780320582544057e-05 6.812346926861812e-05 -3.356147830505617e-05 5.600270477376415e-05 -2.710606904230125e-05 -3.2885896244369634e-05 0.00012776354079081277 0.0001436721132152571 3.789583171599146e-05 6.700079858894092e-05 -4.7291082466333086e-06 9.907220313214927e-06 4.3938496971522784e-05 2.3767821786358795e-05 0.00012454745141133211 9.318576364571004e-05 0.00014190290814925088 9.748557351994471e-06 4.945213989887439e-05 0.000104606171453511 0.00012744610508934066 9.995276163106098e-05 0.00013888494280816252 7.088220133317258e-05 0.00014688494491553266 0.00012582012408660466 0.00016106656334470736 0.0001502335267658726 0.00014455470652149606 0.0001444278210661359 0.00012681603229300817 0.00011872857935534826 0.00013059213330467357 0.00013362136976022892 9.976641090838671e-05 0.0001202859145146298 7.476368897889713e-05 9.31066815848738e-05 7.782259949454918e-05 9.314196622421722e-05 1.3755516484311677e-05 6.922368224088527e-05 5.595365610785392e-05 -2.840963168329993e-06 5.4067883374426494e-05 9.4335926870692e-05 0.00010118680486415342 1.0233802539669762e-05 5.572118421381635e-05 9.507048617777378e-05 3.698119897431661e-05 -5.958506778021211e-06 2.924282028380793e-05 -4.159382897742492e-05 0.00010908552541881064 0.00012450773289946794 0.0001457622282201467 0.00010269019348684668 0.00013909092653076622 4.524061022637593e-05 -8.267267943967131e-06 -3.710598939494083e-05 1.8404118193011952e-05 -4.9885526352539036e-05 -8.81216106378782e-05 -0.00011352865330437219 -0.0001145030160827783 0.00010366017227927453 9.629814627568643e-05 0.00012345706496433564 6.113059037559866e-05 0.00014644894178920384 5.307469344010417e-05 -2.5266845660448587e-05 -4.177649860863532e-05 -5.271961262832925e-05 8.67312682827627e-07 0.000146608662640191 -2.798129445277626e-05 8.723661105685306e-05 0.00015164964463348446 0.0001448611378631073 6.427867548924989e-05 0.00017146340434003455 0.00015226302260900023 0.00016069235188780106 0.0001746289874726615 0.0001415665346731033 0.00013121182618963922 0.00017046592687111424 0.0001835936119458083 0.0001448573960844684 0.00017481673321784094 0.00017333821442444037 0.00019128462482835427 0.00016530093193446008 0.0001620670698118498 0.00011429854059725913 9.009709140400444e-05 0.00012083722279407764 0.00012154093005107488 0.00010201797727246886 9.258090098287321e-05 9.220666862233513e-05 5.764764377737878e-05 6.791195543518697e-05 6.385815287359478e-05 0.00013750380987189145 0.00011117899530785653 -4.581493026026521e-05 1.5145213682998502e-05 3.5884552447790196e-05 -0.0001787091055439895 -0.0002462622458849024 -0.0002581619114671815 -0.00021329864466562706 -0.00020808536695825686 -0.00014769599128393933 -0.00011808155016478834 -1.5948627967986605e-05 -2.3599510457997643e-06 7.246628209523388e-05 0.000292308163666985 -1.4575682959363078e-06 2.411542243714104e-05 0.0001576960204874087 8.502554945489436e-05 -4.3924524202733096e-05 -5.955055670559976e-05 0.00017805415158055253 3.809565480903708e-05 -7.120009715838223e-05 8.268874358488445e-05 9.84901822961183e-05 8.785426307562546e-05 8.134770788150602e-05 0.00010284957187754568 0.00010606499160789048 8.860859574671195e-05 4.71074848201647e-05 3.122285779911932e-05 -3.4765763740796473e-06 1.494540662248357e-05 -3.956200634402299e-05 0.0001576847732093662 0.00021915506746454763 1.0506757416861693e-05 0.00012590429004518425 9.301666356327104e-05 0.00010659475158491345 0.00011075394711387457 0.00019303809923928674 0.0005899247368174147 0.00045780377080982575 0.00010503994428744791 0.00010386310983551174 5.282221048812277e-06 0.00012016740812078603 -8.733926082409268e-06 -1.5063431018530723e-05 1.9054887653797954e-06 3.8119290630467574e-06 4.3076297231527286e-05 8.655894784584892e-07 1.8382618550640213e-05 0.00023122723185099137 0.00046243698776038893 0.0004193764368994903 0.00043502038652501544 1.1919367547108909e-05 5.259874529538946e-05 0.00043808701116550145 0.0004193238896025904 -9.961493843470012e-06 0.0006595511702522254 -1.5291403068522898e-05 -5.491241778875461e-05 0.0001592781765457023 5.732072379026802e-05 0.00030560131100667236 0.00047943974709105055 5.483130117983481e-06 8.2287125736106e-05 5.1905307338214196e-05 0.00037300727435100856 0.0001118390443622671 0.000585779169440406 0.00016882755224548426 0.0001571234401673994 0.00010597914608360315 0.0004882774613453651 4.7445328228861134e-05 -7.988036128140246e-06 0.00020151664891093144 0.0001605472010533962 0.0001258035998364831 -2.9428048552412972e-05 0.00019416226545774726 0.00018402178834724995 0.0001472276819543622 5.2009041649340196e-05 0.00014431325856346965 7.060354086861929e-05 0.0004231671260194794 -5.659157628748817e-05 0.00015749175877991558 0.0003953996020092884 0.0005969513593339678 3.621175746757539e-05 3.786562048944307e-05 -2.7586009478675985e-05 6.707856728596196e-05 0.0007717388599345316 0.00048435397851349373 0.00012739622231579804 0.0006791694112916211 4.1050503486122235e-05 1.2107453702483128e-05 0.0005094730754936068 8.566382300151595e-05 0.00014410104068100966 6.278624778543867e-05 0.00047092662356044675 3.4540523578752685e-05 0.00047605312392217346 0.0004708092532645827 0.00019161553046059712 1.8434280764178616e-05 4.816254516638088e-05 0.00012179447288051969 1.4122537314920458e-05 7.86224894690045e-05 1.2538284252939836e-05 6.34617935957508e-05 5.5930889828091095e-05 4.3567152489090316e-05 2.0419900056360397e-05 3.776543974295645e-05 8.961818300800713e-05 6.732577990302046e-05 0.00012283520810751398 7.205683216496629e-05 4.388548639496754e-05 4.2777344613048744e-05 5.346328925180438e-05 7.500193880446331e-05 8.204090270051951e-05 0.00015738930529891933 1.4398011307084563e-05 0.0001039357677020782 6.129130566464807e-05 6.498088372700868e-05 4.100208480842119e-05 6.980160232099253e-05 0.00010283627176157891 0.00010805624699701672 0.00014531277571174335 0.00013584119687861114 1.9601175038608005e-05 1.6760732577176586e-05 0.0002801905798803438 0.00043544776397340607 0.00040045169133525116 0.0004574368659223986 -3.481948519337746e-05 -5.531832390648596e-05 0.0001790935856446412 0.0004381243645330144 0.00032370457756755267 0.0001967985630905434 0.00010745561213362225 0.0004032485687225681 -1.9594987962730438e-07 0.0007660263007827549 0.0007390624387960743 0.00010169799489325641 0.00015280594583807675 0.00020489894357560476 0.0001830457836013349 -1.8309571402706737e-06 0.00012088887958011183 0.0001221773997751451 0.00010937350843680295 0.00014427706350212476 0.00010859225222174523 0.00012295145673189037 8.185172488457096e-05 5.7658116977977634e-05 0.00011940889439181485 9.714185878896314e-05 0.00012174556376708454 8.512075713878857e-05 0.00010871390033061047 0.00012150291