<?xml version="1.0"?>
<VTKFile type="UnstructuredGrid"  version="0.1"  >
<UnstructuredGrid>
<Piece  NumberOfPoints="1289" NumberOfCells="2413">
<Points>
<DataArray  type="Float64"  NumberOfComponents="3"  format="ascii">0 0 0  0 0.41 0  2.2 0.41 0  2.2 0 0  0.1 0.1 0  0.1 0.3 0  0.8 0.3 0  0.8 0.1 0  0.25 0.2 0  0.248976 0.210065 0  0.245948 0.219718 0  0.241038 0.228563 0  0.234448 0.23624 0  0.226448 0.242432 0  0.217365 0.246888 0  0.207571 0.249423 0  0.197468 0.249936 0  0.187467 0.248404 0  0.17798 0.24489 0  0.169395 0.239539 0  0.162062 0.232569 0  0.156283 0.224265 0  0.152293 0.214968 0  0.150257 0.205058 0  0.150257 0.194942 0  0.152293 0.185032 0  0.156283 0.175735 0  0.162062 0.167431 0  0.169395 0.160461 0  0.17798 0.15511 0  0.187467 0.151596 0  0.197468 0.150064 0  0.207571 0.150577 0  0.217365 0.153112 0  0.226448 0.157568 0  0.234448 0.16376 0  0.241038 0.171437 0  0.245948 0.180282 0  0.248976 0.189935 0  1.1 0 0  1.1 0.41 0  0.1 0.2 0  0.45 0.1 0  0.45 0.3 0  0.55 0 0  0.275 0.1 0  0.275 0.3 0  0.275 0 0  0.55 0.41 0  0 0.205 0  0.825 0 0  0.825 0.41 0  0.275 0.41 0  0.1 0.15 0  0.1875 0.1 0  0.1 0.25 0  0.1875 0.3 0  0.132322 0.2 0  0.241426 0.253518 0  0.241426 0.146482 0  0.264574 0.17974 0  0.264574 0.22026 0  0.138434 0.187348 0  0.153372 0.150948 0  0.148413 0.164094 0  0.176495 0.136535 0  0.22768 0.143571 0  0.138434 0.212652 0  0.148413 0.235906 0  0.176495 0.263465 0  0.22768 0.256429 0  0.23125 0.3 0  0.24769 0.24094 0  0.23125 0.1 0  0.24769 0.15906 0  0.26253 0.193641 0  0.190482 0.137872 0  0.166753 0.146661 0  0.157737 0.244461 0  0.190482 0.262128 0  0.203107 0.261264 0  0.253635 0.22977 0  0.203107 0.138736 0  0.253635 0.17023 0  0.261028 0.206206 0  0.167707 0.251809 0  0.143629 0.224191 0  0.215302 0.2591 0  0.270465 0.245894 0  0.215302 0.1409 0  0.270465 0.154106 0  0.284052 0.202587 0  0.14375 0.3 0  0.209375 0.3 0  0.225966 0.278501 0  0.209375 0.1 0  0.225966 0.121499 0  0.211613 0.273759 0  0.211613 0.126241 0  0.143629 0.175809 0  0.1 0.175 0  0.133484 0.164832 0  0.144491 0.249539 0  0.1 0.225 0  0.133484 0.235168 0  0.3625 0.3 0  0.25691 0.253381 0  0.25691 0.146619 0  0.277205 0.188698 0  0.184724 0.275712 0  0.237372 0.268285 0  0.184724 0.124288 0  0.237372 0.131715 0  0.197578 0.273149 0  0.193656 0.286994 0  0.197578 0.126851 0  0.193656 0.113006 0  0.122953 0.187671 0  0.118362 0.153758 0  0.155372 0.258107 0  0.122953 0.212329 0  0.118362 0.246242 0  0.276394 0.27264 0  0.276394 0.12736 0  0.280965 0.170013 0  0.253125 0.3 0  0.14375 0.1 0  0.253125 0.1 0  0.269489 0.26014 0  0.269489 0.13986 0  0.303639 0.184297 0  0.165625 0.3 0  0.134742 0.273113 0  0.257831 0.274737 0  0.255279 0.128499 0  0.3625 0.1 0  0.165625 0.1 0  0.162031 0.132368 0  0.134955 0.126405 0  0.149334 0.125568 0  0.142936 0.139597 0  0.12695 0.140259 0  0.242514 0.285501 0  0.242514 0.114499 0  0.1 0.125 0  0.117483 0.12555 0  0.11154 0.139776 0  0.121875 0.1 0  0.109143 0.1125 0  0.126805 0.114 0  0.220313 0.29129 0  0.351562 0.287369 0  0.207222 0.2866 0  0.220312 0.10871 0  0.1375 0 0  0.20625 0 0  0.207222 0.1134 0  0.11722 0.17118 0  0.1 0.1625 0  0.0778409 0.16875 0  0.0862762 0.15625 0  0 0.15375 0  0 0.1025 0  0.11722 0.22882 0  0.1 0.2375 0  0 0.3075 0  0.0862762 0.23125 0  0.0598995 0.222547 0  0.0860223 0.2125 0  0.289584 0.181469 0  0.300267 0.16446 0  0.163832 0.269071 0  0.149597 0.273325 0  0.1 0.275 0  0.268498 0.285953 0  0.31875 0.3 0  0.294154 0.254672 0  0.296875 0.3 0  0.293558 0.271845 0  0.285095 0.286799 0  0.324298 0.264316 0  0.307866 0.263745 0  0.317093 0.234901 0  0.315485 0.281219 0  0.316547 0.250625 0  0.344693 0.243731 0  0.331592 0.251147 0  0.35129 0.270663 0  0.338689 0.263683 0  0.340625 0.3 0  0.249849 0.264383 0  0.265097 0.11422 0  0.284688 0.156136 0  0.242188 0.324017 0  0.0856613 0.2625 0  0.132812 0.0612217 0  0.264062 0.0612217 0  0.198437 0.07598340000000001 0  0.0860223 0.1375 0  0.0794526 0.191089 0  0.285228 0.140397 0  0.298655 0.148737 0  0.31875 0.1 0  0.327335 0.15374 0  0.296875 0.1 0  0.312289 0.155283 0  0.313348 0.135607 0  0.321802 0.173916 0  0.298433 0.134116 0  0.112124 0.2625 0  0.127526 0.259083 0  0.121875 0.3 0  0.0682687 0.241503 0  0.1 0.2875 0  0.117762 0.28125 0  0.107813 0.3 0  0.103906 0.313849 0  0.0778409 0.28125 0  0.1375 0.41 0  0.0862762 0.29375 0  0.08886860000000001 0.24375 0  0.307812 0.338778 0  0.307812 0.292227 0  0.33216 0.279164 0  0.387888 0.266414 0  0.264063 0.31948 0  0.110937 0.07598340000000001 0  0.242188 0.07598340000000001 0  0.319914 0.11839 0  0.340625 0.1 0  0.334448 0.133793 0  0.329687 0.108539 0  0.346259 0.118491 0  0.360334 0.173636 0  0.327539 0.205033 0  0.132812 0.288712 0  0.362436 0.278836 0  0.368105 0.259418 0  0.4125 0.41 0  0.329687 0.324017 0  0.329687 0.292306 0  0.285938 0.318952 0  0.417187 0.338778 0  0.324481 0.14148 0  0.351562 0.106771 0  0.40625 0.1 0  0.341028 0.168342 0  0.319221 0.190479 0  0.335292 0.184501 0  0.305563 0.20794 0  0.220313 0.31948 0  0.132812 0.332772 0  0.0865876 0.311259 0  0.0598995 0.302453 0  0.0906541 0.343255 0  0.353543 0.255837 0  0.36574 0.237633 0  0.405007 0.254279 0  0.275795 0.352123 0  0.4125 0 0  0.35493 0.137394 0  0.366563 0.120618 0  0.35917 0.205246 0  0.198438 0.318952 0  0.0626109 0.263892 0  0.40625 0.3 0  0.354809 0.155936 0  0.386512 0.146872 0  0.373101 0.159939 0  0.384375 0.1 0  0.343394 0.19929 0  0.350682 0.185683 0  0.368101 0.189748 0  0.344016 0.221511 0  0.391108 0.213329 0  0.376279 0.204783 0  0.398843 0.182768 0  0.375804 0.222746 0  0.390665 0.196958 0  0.394004 0.23518 0  0.359883 0.222828 0  0.419908 0.204359 0  0.404243 0.204783 0  0.412615 0.224526 0  0.20625 0.41 0  0.165625 0.325257 0  0.0347982 0.244954 0  0.379558 0.247154 0  0.34165 0.147603 0  0.372264 0.136992 0  0.388988 0.121989 0  0.373437 0.108554 0  0.351562 0.31948 0  0.391367 0.16527 0  0.399572 0.223324 0  0.452011 0.227371 0  0.40877 0.239392 0  0.431491 0.237337 0  0.421224 0.250459 0  0.449619 0.262098 0  0.418865 0.276779 0  0.437063 0.252274 0  0.415673 0.263227 0  0.430988 0.266772 0  0.402767 0.273419 0  0.452967 0.244883 0  0.428125 0.3 0  0.408502 0.286186 0  0.384375 0.3 0  0.392267 0.285807 0  0.465927 0.219339 0  0.43489 0.283846 0  0.376424 0.286289 0  0.625 0.3 0  0.473533 0.205186 0  0.461713 0.255517 0  0.5375 0.3 0  0.465725 0.235405 0  0.44631 0.201425 0  0.471875 0.3 0  0.494307 0.227729 0  0.459448 0.206736 0  0.462294 0.180792 0  0.478933 0.227536 0  0.486793 0.21381 0  0.486322 0.251373 0  0.50065 0.215318 0  0.54005 0.175389 0  0.474633 0.189893 0  0.512916 0.208697 0  0.49531 0.199967 0  0.475889 0.175275 0  0.625 0.1 0  0.459311 0.153933 0  0.513645 0.242704 0  0.392892 0.248539 0  0.374815 0.271913 0  0.365974 0.14871 0  0.395312 0.109184 0  0.417061 0.123981 0  0.483196 0.277003 0  0.381967 0.179632 0  0.429898 0.219374 0  0.433473 0.206165 0  0.43149 0.181038 0  0.444208 0.215487 0  0.472985 0.247309 0  0.49375 0.3 0  0.475579 0.262714 0  0.49916 0.274293 0  0.501175 0.184809 0  0.514164 0.225681 0  0.543648 0.214977 0  0.5341630000000001 0.23481 0  0.527396 0.216171 0  0.5375 0.1 0  0.534548 0.202315 0  0.561545 0.192513 0  0.5494289999999999 0.201221 0  0.570923 0.218346 0  0.412582 0.149833 0  0.489327 0.264745 0  0.502439 0.254775 0  0.462391 0.271166 0  0.496775 0.241732 0  0.5294410000000001 0.268606 0  0.482812 0.291099 0  0.46879 0.285038 0  0.452663 0.284065 0  0.51789 0.257882 0  0.53408 0.252026 0  0.560142 0.243543 0  0.545708 0.243474 0  0.547532 0.229019 0  0.55282 0.265323 0  0.398971 0.153424 0  0.400349 0.135684 0  0.410135 0.168145 0  0.428823 0.161323 0  0.415266 0.183779 0  0.329687 0.0810483 0  0.395312 0.0612217 0  0.373437 0.318952 0  0.439062 0.324017 0  0.561816 0.229354 0  0.585029 0.239287 0  0.431827 0.139854 0  0.446796 0.168929 0  0.351562 0.07598340000000001 0  0.395313 0.318944 0  0.54337 0.150762 0  0.460937 0.31948 0  0.418412 0.137529 0  0.428125 0.1 0  0.442783 0.152332 0  0.450742 0.134294 0  0.373437 0.0805201 0  0.384383 0.342558 0  0.482812 0.318952 0  0.429239 0.127457 0  0.444274 0.117405 0  0.426548 0.113815 0  0.49375 0.1 0  0.488954 0.113984 0  0.457973 0.121842 0  0.471621 0.137346 0  0.515625 0.325257 0  0.48125 0.41 0  0.417187 0.07598340000000001 0  0.496363 0.126778 0  0.479043 0.155715 0  0.439062 0.0805201 0  0.481795 0.126919 0  0.471875 0.1 0  0.489227 0.142159 0  0.515625 0.1 0  0.520062 0.147117 0  0.501244 0.161791 0  0.505431 0.112984 0  0.505344 0.14029 0  0.526563 0.119081 0  0.5181750000000001 0.131908 0  0.539868 0.136937 0  0.460937 0.108383 0  0.474242 0.114415 0  0.460937 0.0810483 0  0.487841 0.167168 0  0.526563 0.0612217 0  0.526563 0.106406 0  0.537619 0.112743 0  0.58125 0.1 0  0.559375 0.1 0  0.482812 0.08105569999999999 0  0.471883 0.0587655 0  0.570312 0.129396 0  0.548437 0.07598340000000001 0  0.504687 0.08105569999999999 0  0.49375 0.0470127 0  0.570312 0.112663 0  0.592798 0.12103 0  0.553986 0.12103 0  0.570312 0.0805201 0  0.48125 0 0  0.114787 0.2 0  0.160769 0.284765 0  0.175816 0.288361 0  0.162602 0.116048 0  0.154687 0.07598340000000001 0  0.176562 0.0805201 0  0.0598995 0.147547 0  0.307812 0.109924 0  0.291279 0.117157 0  0.278491 0.112989 0  0.285937 0.07598340000000001 0  0.307812 0.0805201 0  0.296928 0.196743 0  0.318141 0.218507 0  0.330208 0.227509 0  0.301397 0.225668 0  0.302706 0.241401 0  0.292574 0.21424 0  0.282762 0.230935 0  0.284351 0.244775 0  0.269553 0.23261 0  0.278572 0.217242 0  0.226924 0.342606 0  0.446928 0.185396 0  0.515625 0.3 0  0.504687 0.288879 0  0.515256 0.276534 0  0.529479 0.285328 0  0.58125 0.3 0  0.541969 0.272936 0  0.559375 0.3 0  0.556796 0.282529 0  0.543473 0.287206 0  0.581429 0.267774 0  0.566728 0.271171 0  0.570869 0.255585 0  0.577404 0.283865 0  0.603125 0.3 0  0.597531 0.28035 0  0.570312 0.338778 0  0.592188 0.292492 0  0.603513 0.256094 0  0.614063 0.286265 0  0.610329 0.27064 0  0.632708 0.251285 0  0.657223 0.261594 0  0.618789 0.257807 0  0.614188 0.22987 0  0.630935 0.265614 
[...]
<PointData  Scalars="p"> 
	<DataArray  type="Float64"  Name="p"  format="ascii">
0.00045081847634297854 0.0005079367691753905 2.0745730260599354e-06 -6.152807285429318e-07 0.0005019750773137256 0.0005747191813132217 0.0002621300481209722 9.126132984973634e-05 -0.0003085169243382867 -0.0002718168266117348 -0.0002560521858093575 -0.0002606256141877986 -0.00029900433329318375 -0.0003520907870642514 -0.0004400422982611779 -0.0005713761617973877 -0.0006762905597662298 -0.0008315032832868235 -0.0005937604489138299 -0.00020608505492381967 0.0003341588611919383 0.0009853724128856258 0.0014984790364172057 0.001802476336184679 0.0017650430358638473 0.0013841939688142531 0.0008253004466322483 0.0001281442856352017 -0.0005437247111739059 -0.0008369349691446575 -0.0010444606866002678 -0.0009124596446403504 -0.0007835908700638707 -0.0006357598905094269 -0.0005242866245625577 -0.0004644104242092046 -0.00043259486393270225 -0.0004029611684230306 -0.000360763167536912 0.0001658615725583699 8.986446483336422e-05 0.0011720983270429991 0.00019464812775601872 -7.316550183517687e-05 0.0002780891705197873 -0.00022698890480100196 -2.9793404004723712e-05 3.3679537268613544e-05 2.499166737981874e-05 0.0007769619645745491 0.00011292480665713512 0.0002432388669802909 0.00019076265431739738 0.0008103836053906633 -1.6309658918007843e-05 0.0008716649453535411 0.00012990046243797795 0.0015941391917225663 -0.0002852511576989701 -0.0004401508927067753 -0.00039030207441106084 -0.00026605140347723584 0.001517619368765181 0.0002598097343813294 0.0006804762531273999 -0.00043049211190925095 -0.00053559067984203 0.0015820690662798269 0.0008245407738016575 -0.00022716229962091767 -0.00035458854243468487 -1.987098044947263e-05 -0.00027529067240622486 -0.0001796864941358613 -0.0004224727061901277 -0.00034274572042568584 -0.0007158799891439591 -0.0002889476095794991 0.0003092593498943099 -0.0005138144110534362 -0.0005247451333212346 -0.00026286077738395366 -0.0007388428463992562 -0.0004079522030904136 -0.0002969520536827471 -0.00012881409105286302 0.0012560994784147318 -0.0004334525046770411 -0.00022909351999284556 -0.0006302546809892465 -0.0004252081371817413 -0.00032301448078133764 0.0004220788107394451 6.30192516404071e-06 -0.0002229313740374413 -0.00010663557995577966 -0.00038196473813514474 -0.0003100118502689341 -0.0004913239151208631 0.0011380482664566272 0.0010320769098961092 0.0009973139817360936 0.0006306705039065012 0.0010890191875287001 0.001110108573237533 -1.6811410155977045e-05 -0.00024863463599069833 -0.00041489814729882735 -0.00037351650024076207 -0.00012637895040948434 -0.0002827784061154234 -0.0002981811962452426 -0.0004648890671151962 -0.0002626053650579195 -3.2570287248102686e-05 -0.00042182474373822395 -0.00018043162720382357 0.0013603683248685622 0.0008622129487026189 0.0003513254242734085 0.001392475477516943 0.0009427104754110041 -0.00015319879124672242 -0.00042223654661755947 -0.00043808402059072996 -4.713124554917672e-05 0.00031840669296622084 -0.0002044973227107709 -0.00020724721502846606 -0.0004304302737922197 -0.00044430527966566745 0.00027689456587134503 0.0005892056100488311 -0.00020158176190796117 -0.0003957962291300878 -0.00014602674183649002 0.00018112516389059556 6.18634473489289e-05 0.00046674605831062985 0.00030674597639414217 0.00038892247119470553 0.0006251351190966957 -0.00014548330410033052 -0.0003100899071648054 0.0006167372529954636 0.0005727090820610311 0.0006996475309871055 0.00043725904488319624 0.0005260356728365377 0.0004676997234596451 -7.834636207328639e-05 -2.77274295758827e-05 -0.00012430977086651268 -0.00023582334193934017 0.00036671571757464525 0.00018819808360079652 -0.00026193966205744694 0.0010845972388642223 0.0009178151199584163 0.0008898719261873846 0.0008284341522966772 0.0006907444198739987 0.0005401043282006701 0.0011413116919266734 0.000989162187808445 0.0005812879501355939 0.0009450638768745413 0.0008749505176254244 0.001029102911189031 -0.00042482123229521456 -0.0005114657951066011 0.00015224872547685332 0.0004010267761819705 0.0006908671883850199 -0.00011586121593098774 -1.473498810148931e-06 -0.00014848689504243597 -2.2125154261003262e-05 -0.00011679562740712506 -8.678575001320323e-05 -5.589105065894084e-05 -8.949592567200149e-05 -0.00015052238908679826 -4.6355285114766675e-05 -9.511323068584709e-05 -6.909535446573457e-05 -6.291116153046508e-05 -4.117892987408632e-05 -4.0223903287929824e-05 -9.581875244386121e-06 -0.00024836477288348865 -0.00033312560856049494 -0.00046879620876015353 0.00010910416489276054 0.0007769218605365486 0.000358643295114056 -1.7190354526989054e-05 0.00010778062330522127 0.0006959590728760087 0.0009795382245581929 -0.00046898760000090944 -0.0005204921853358573 -0.00024339889706880496 -0.000590223216022108 -0.00026470849725807055 -0.0005656683600452874 -0.0005329132528267305 -0.0005415825428467262 -0.0004918667966901191 0.0007651941717368429 0.0007240661433435355 0.000524420905113942 0.000835759051512546 0.0006353743725426935 0.0006168724097194252 0.0005547365738464392 0.0005253307417097341 0.0006620852585851596 0.0004362984408728752 0.0006135473621313025 0.0008954547097972875 9.380360791812981e-05 -3.4747661844709495e-05 -3.844904593273628e-05 -0.0001315728007593582 5.734682514649101e-05 0.00042973650789073615 -2.7483915463687035e-05 -0.00039605927831662147 -0.00022567993140218994 -0.0004982208548102218 -0.0003022476331564769 -0.00033076632284704036 -0.0004860726879716244 -0.0003207697270276644 0.0005035496990756663 -6.114275650387882e-05 -6.796721796135543e-05 0.00010018160117001707 5.914948557295602e-05 -2.8019450120386047e-05 4.683631065294309e-05 6.316124974725022e-05 -0.0005553110764522971 -0.0002257099220295443 3.122329858602018e-05 -0.0005709207348931798 -0.000430462672135217 -0.0004846514707548699 -0.00030517033559879415 0.00010365762433093728 0.0004433523837312705 0.0005583238939042273 0.000594702998573529 0.0004944570206280295 -4.939375073040369e-05 -9.666519265178212e-05 -0.00020494786961239886 0.00016003616543400608 3.0986316504047856e-05 -0.00042917320024359447 -0.00023971560909428599 -0.00027947745523757884 0.00020006355068126624 0.0007315547459606379 -6.60742445309177e-05 -0.0005225591914156124 -0.00021395287855740519 -0.0003935601736537077 -6.362151404266032e-05 -0.0003571097822892726 -0.0004569196488862919 -0.0003678539967668306 -0.00017690936534249288 -0.00019749681171819734 -0.0002466597820350711 -0.00021955975488887602 -0.00015018175434202747 -0.00023819057902909016 -0.0001685403823555867 -0.0001520311110947658 -0.00021644635065588345 -0.00021047810497891299 -0.0002367829016176441 0.0003168241942527946 0.00032324230385825557 0.0007500128511249482 -0.0001084423430235959 -0.0005516312837885751 -0.0002874328374238866 -8.992452002387607e-05 -0.0001429117500037746 3.9779407545220444e-05 -0.00024109750964427574 -0.00019492726958382197 -0.0003634534910127672 -0.0002319227410974032 -0.0003278281478043982 -0.0002815081853731973 -0.0002951154104127073 -0.00019880872303043823 -0.0003243046346117692 -0.00023613839031897085 -0.00026571118205400405 -0.0001727606995651467 -0.00035976228528619567 -7.585278135590605e-05 -0.000134420809727092 -4.437421410848467e-05 -0.0001108028862461971 -0.0003248823627387916 -0.00018329529044174432 -7.312383880431287e-05 0.00011984932559480169 -0.00022979219430518304 -0.0003100675839902698 3.1051381426467394e-05 -0.00035055493375185816 -0.0002115906305026116 -4.736912621805418e-05 -0.0002208368118689077 -0.0002686372276599227 -9.280458346537983e-06 -0.00031334402319509435 -0.00023600335195599002 -0.00022757419564349763 -0.0001616679384639581 0.0001555268973178457 -0.00010116114509693229 -6.802780637051026e-05 -0.00012312517421628736 5.951793523273824e-05 0.0002107205554876932 0.0002428275397388123 -7.860415867632327e-05 -0.00016005233799571897 -8.281541095405343e-05 -0.00041078896893735536 -3.0212879850545585e-05 8.933085814354596e-05 -0.00011954468045605251 -0.00033557665213383844 -0.00028333925325886095 -0.0002369549489654614 -5.4780620082650985e-05 -0.00030175348298292875 -0.000305895044442325 -1.799164583594346e-05 -0.0002267700495295481 -7.979700845539016e-05 8.31128308382176e-06 -8.94611189422169e-05 7.067107225085034e-05 2.6024627728374154e-05 5.734638774774221e-07 0.00030418906689576677 6.093407324402421e-05 0.00013225856143068634 0.00010274659361237397 0.00012450476742334167 1.0563889894895185e-05 -0.00015419371837549918 -0.00012007562600576386 -0.0002219685138859308 -0.00019690225153759204 1.686984494029345e-05 -6.80660687156786e-05 -0.00013150686474852182 -0.00015869863834659914 -3.784761106487843e-05 3.156758871617499e-05 0.00010582048899772054 6.625716310231709e-05 7.583249368993441e-05 7.731845383025665e-05 -0.00012034074478831333 -3.605813004092319e-05 -9.025213817828033e-05 7.55984019321296e-05 -0.00012978487015770227 -0.00014016574972754717 1.0887093529079202e-05 2.3582438726565144e-05 2.241305748285682e-05 0.00011286360588209671 0.00013630869745411898 0.00017831026401234602 8.682484670610349e-05 -9.079654141206404e-05 1.6525893912437445e-05 0.0002622640293142882 1.7910194335021867e-06 8.826264707471728e-05 0.0001194258277595215 0.0001932875367172973 0.00026795864108733003 -6.483799456440634e-05 7.846938702788776e-05 -4.650709584692892e-07 0.0001686972798192011 0.0002205272193214413 0.0001313938145278304 0.0002903590205484273 0.0003174615975480833 0.0002762394446033091 0.00032777267547274284 2.4518557803613264e-05 5.405111905817166e-05 5.59351930675612e-05 0.00034661202097579363 0.00024788933753105773 0.00012369470869090545 0.0003358889727641047 0.00025333426058010813 0.0003279133951915645 0.00030348753097298885 0.0002963542248974376 0.00020418790217785016 0.00032842798240583133 0.00033718750161432464 0.00033143807259182543 0.0003380556915271873 0.000313604851175929 0.0002506664508027666 0.00030106513162511466 0.00018119506189263323 0.00014384777629916883 0.0002765603764055115 0.00031023034387930854 0.00031079785261225237 0.00026773021665203625 0.00028654112441287466 0.0002275303670918738 0.00017608433330350596 0.00025065873424740697 0.0002987261154711415 0.00026677276390578555 0.00020175141037386397 0.00026089522993842255 0.00019947599347158634 0.00029047034786716463 0.0003023437749100208 0.00016791209884627303 0.001341573025588915 0.00028633100446257215 0.0001090891750558167 0.00011848199809676441 0.00028772380990292753 0.0001765161806432388 0.0007292447811575595 -0.00034436724067545373 -0.0003805460765952049 -0.00033169855045306714 -0.00010495933343884264 -0.00014232423968332103 -0.0003624160850149353 -0.00023307680703453607 -0.00015826013480739124 -0.00022029923657431407 -0.00016042645720037383 -0.0002751645839493002 -0.00023251815249559227 -0.00019673059472730405 -0.00024651223977530297 -0.0002699210737920802 0.00020728212876695775 -7.085254422902784e-05 1.1674592693337631e-05 -2.874091946474026e-05 -1.317142988268361e-05 1.94689074464097e-05 6.963672219925112e-05 5.2506684249452666e-05 5.7180061400503054e-05 6.765571664603367e-05 4.905379646505713e-05 0.00011489907686654939 9.381984844280275e-05 0.00011369337122906008 8.83145294093201e-05 9.358277786743628e-05 0.00011586779510304661 1.7548561682348112e-05 9.380971969994421e-05 0.0001389471198164963 0.0001222433217896616 0.0001344926214081836 0.00012155691057333304 0.00010971728837998919 0.00013967774322819017 0.00011024626736589207 0.00014213462781808114 0.00012763331233540918 0.0001590581846974015 2.587580159521277e-05 0.00020183817452710482 0.00013943645997307666 0.0001431673460745353 0.00014181300478502754 0.0001405913396229278 1.3404875275298003e-05 5.679808048531064e-05 0.00012674078629132678 0.00013135463716075984 0.0001518945632112456 9.570673873341927e-05 0.00020248494755702176 8.010348283387693e-05 0.00010577887570782508 0.00017678405251159463 -2.795953573400559e-06 0.00015798263243148452 0.00015844401724587678 5.311180930264196e-05 5.0853724307446176e-05 3.558312788847829e-05 8.761675813817044e-05 9.998916082996263e-06 5.115172020654595e-05 -8.588540688502624e-05 7.637359672491424e-05 -4.687188022283417e-05 0.00010368992814002308 -5.117236516143578e-05 0.00016564771869740565 0.00015726558810786413 0.0001478312680369639 0.00018905173405821612 0.00025067416548180365 0.00022803033094739592 9.866027621704927e-05 0.00020920901957842443 0.00018802904258472664 0.0002151754780494025 0.00023044208714341198 0.00021383370049092294 0.00015961679545428158 0.00018253763967199764 0.0001985333430914754 0.00022040013059890454 0.0002193792958207642 0.00011706554333604733 0.00017611536390897586 0.0002577075230791693 0.00024142659700585205 0.00023850760012863632 0.00024244544381138813 0.00021970246549490123 0.0002442230747321194 0.00023628862365628078 0.0002742899753915827 0.00012890300471186185 0.0001773835762248177 0.00011894995107632162 0.0001812204675352135 0.00026019404689508796 6.547381128934903e-05 0.00019367268590115904 0.00016010284567629488 0.00010811648884769802 0.0002802043255563181 0.0001455783070799307 -4.0197778119706934e-05 0.00020183617919793375 0.00014791876692171 0.0001303570087613305 0.00014506531792976628 0.0001452844417562159 0.0002698095446421123 0.00012701705416459365 0.00022893366459617056 9.363626682928357e-05 0.00010845243593272603 0.00010569440987802171 0.00016548588408629318 8.949212414616117e-05 3.194206925187314e-05 7.223208394913158e-05 2.6352102590358132e-05 0.00011035344400330498 0.00012128637823474501 9.33007384227663e-05 7.295263543202235e-05 5.571471716195756e-05 7.918670371057904e-06 6.707387858998218e-05 8.309910555023274e-05 0.00010492892802264123 -4.617579938363301e-05 9.125212441748272e-05 -3.8211583550633526e-05 -7.732083312142021e-05 1.7891623078552392e-05 -8.644762725322529e-05 -7.842594404791636e-05 -4.723648428642553e-06 7.039611485220428e-05 4.8282827933360755e-05 1.2222759803395706e-05 6.020699738192375e-05 4.499845313944978e-05 4.3147028922753405e-05 0.00014247531287114827 6.382675247555858e-05 8.996487069258729e-05 6.329410402397315e-05 3.6492985194041116e-05 2.1509221040898123e-05 -3.679163253698671e-05 -5.147944108582816e-05 -1.1827141531257126e-05 -3.5313275263424153e-06 -5.669246631499018e-05 -3.550472992963987e-05 -4.3445520535971506e-05 7.141982172576054e-05 3.4230454954616576e-06 6.742476829647287e-05 3.893940700982703e-05 0.00016591541121536077 9.743552019916314e-05 0.00010818598911683215 0.00013013709519435745 0.00011829806418864546 4.8498467411570734e-05 4.895136741015816e-05 0.00019047183178946687 0.00013648800880458525 0.00010233469669191878 0.0001512119791565358 0.00023807930065638917 0.00017404605707150512 0.00022863474028696673 6.036159678064858e-05 5.592668900594614e-05 6.498515016449167e-05 9.628548274378489e-05 7.239789306951285e-05 0.0001746286598239715 0.0002312631659691785 0.00029167104549067527 0.00020118977811256226 0.0001773418799044005 0.0002776184507220859 0.0002294969703936096 0.0001694833807410214 0.00010413537294887937 0.0001164396680322834 8.479421492171487e-05 0.00013762871509970392 6.814485806231168e-05 0.00016180468383144873 0.0002714648076704408 0.0002891551619383566 0.00014764218643537668 0.00020956450201195192 5.560324160769046e-05 0.00025892447094992235 9.360236201050668e-05 6.488242938703918e-05 6.49635133699802e-05 0.00012768542109194435 9.017065828307695e-05 6.0525993494340887e-05 6.946113215939117e-05 7.817818620583064e-05 8.235714419607214e-05 5.814634244750321e-05 9.151353662061225e-05 6.810530157795808e-05 8.622082468881867e-05 8.892542968947738e-05 2.858975547424427e-05 8.757124756149338e-05 7.615521516636e-05 8.270223612037986e-05 6.847970145540219e-05 8.79475064622726e-05 8.559703440770307e-05 8.56020509649087e-05 8.355251435760644e-05 8.440247794077923e-05 7.906789227050311e-05 9.267328305794647e-05 9.450518463552558e-05 8.995915389873617e-05 7.480305208371638e-05 7.661677302516834e-05 0.00013255948536609565 -2.6136584061818497e-05 5.028263044812326e-05 4.2796286831533034e-05 0.00012757003291928912 0.00022302990735786722 0.0002280290486423259 0.0001135804444793063 9.801432747613645e-05 0.00013458929844353378 5.9733950077112705e-05 8.004336857482107e-05 6.6437414303207826e-06 0.00025563121564136336 -2.9214417544161158e-05 0.00015909326004523395 0.00013653480488928102 0.00012233809504458217 -1.4849348731131366e-05 0.00010106595024523122 7.587621088934204e-05 0.0002677051419797514 0.00011730271288782383 0.00023901193422435385 0.00011962046226129776 1.1617969882660423e-05 -5.880314334178048e-05 6.222990029795945e-05 -8.245587927150483e-05 -9.691731916041708e-05 0.00010085950152494429 0.00012218288327925478 0.00012653520991181132 0.00011074495735318793 0.0003064087765806302 5.753722560645504e-05 0.00010168289634057455 0.00014493263042741805 0.00025336785500452167 0.0001025906193408435 0.00013248185721323797 0.00023413728467475204 5.421002690249261e-05 0.0005695909351458641 0.0005316617183052526 1.4648972394622182e-05 0.00016698844268441153 0.0002714578608789159 -0.0001953082670635906 -2.7546664953449884e-05 -6.337887915883041e-05 -5.791617317331811e-05 -2.2650146034217828e-05 1.230021497886432e-06 0.00028458771635340096 0.00011954876079891975 0.0003314469860401162 0.00043901976421221 0.0004953477688825073 0.0005112484358061117 3.7772964821787286e-06 0.00026243190343360834 0.0004131934432457245 0.0004957296882950961 0.00015388201730547673 0.0007117953664350195 0.0002452978600648674 0.00010832968573219737 0.00016672901519826955 1.3015854456977129e-05 0.00039372636966346906 0.0005517243311854859 7.762208023526943e-06 0.00024202881175357157 -6.117593453618349e-06 0.000453028482135864 0.0002273478908870494 0.000647954929846308 0.00012423848396648468 0.00011109254943255918 5.906094270535154e-05 0.0004646866285876424 0.00014985719013421353 0.0002274626307815785 9.730884165120736e-05 7.172700587504421e-05 0.0001013495479000527 0.000271572738526593 7.5541336851724e-05 9.74310709873414e-05 -1.6967913944253596e-05 0.00020111730520683434 0.00011663518334034399 0.00020940823117991466 0.0004995851044559713 0.00011441832167594043 0.00014788451638726537 0.0004734152386283721 0.0005817156518388974 0.00019282462937192477 0.00020762771806644346 8.86936380332236e-05 2.949411126911598e-05 0.0007841052329269765 0.00046060448990882605 0.00013335503013055385 0.0006738883248386129 0.00020801529090822314 8.287710304764664e-05 0.0004874881073754029 0.00017297593424467814 0.00014299805041231747 7.825699415376128e-05 0.0004468781690495039 -9.077238025116285e-05 0.0004520087251722502 0.0004469274037706491 0.00011971279560769325 0.00022386611037558072 6.15275839025458e-05 -0.0001580226087542535 0.00022102170177169323 -0.00010966366954705587 0.00022851346378209447 0.00012555274114679587 0.00020560756771531715 0.00018223310892434428 7.642942370242268e-05 0.00019160485061973175 0.00015136606807695396 0.0001629646701601612 4.862429974673864e-05 0.0001951591258235604 0.00020771518161500586 0.00021126284538599275 0.00020530347997216788 0.00018782301871742084 0.00018728529135269192 3.5120826068855426e-05 0.000258901629820555 0.00015015738345840104 0.00021046405295050712 0.00020114922987056442 0.00023007893868970037 0.00020105556558984333 0.0001620251341831779 0.00011451922589663685 0.00012007121271238604 -2.7571312726045686e-05 0.00026764043189822636 0.00027500201839279883 0.00037556128416888504 0.0004106454232694194 0.0003725443391564787 0.00043358344143206763 0.00014040788093808363 0.00012227332365145815 0.00010567035108677671 0.0005137516379313574 0.0002886196653332724 0.0001034253299295749 9.8761609141925e-05 0.00048033271045576825 6.572998739212707e-05 0.0007959579428009285 0.0007508198407414477 0.00016915667222288896 0.0001356504296921468 0.00011306824807221389 0.00012161887941220804 2.1218523028326333e-05 -6.125581764064986e-05 5.8814271915940085e-05 6.314569575771284e-05 -7.333963869562024e-06 6.617140244136872e-05 2.272980179429412e-05 5.749144551194684e-05 4.7724957335681736e-05 7.441191706149581e-05 -0.00013718104798108623 -0.00010563706429124398 -8.617209717357066e-05 8.686326731641516e-05 7.370282033635937e-05 -6.389787367685604e-05 1.446876838350846e-05 4.241868020948537e-05 4.4103342974333403e-0