<?xml version="1.0"?>
<VTKFile type="UnstructuredGrid"  version="0.1"  >
<UnstructuredGrid>
<Piece  NumberOfPoints="1289" NumberOfCells="2413">
<Points>
<DataArray  type="Float64"  NumberOfComponents="3"  format="ascii">0 0 0  0 0.41 0  2.2 0.41 0  2.2 0 0  0.1 0.1 0  0.1 0.3 0  0.8 0.3 0  0.8 0.1 0  0.25 0.2 0  0.248976 0.210065 0  0.245948 0.219718 0  0.241038 0.228563 0  0.234448 0.23624 0  0.226448 0.242432 0  0.217365 0.246888 0  0.207571 0.249423 0  0.197468 0.249936 0  0.187467 0.248404 0  0.17798 0.24489 0  0.169395 0.239539 0  0.162062 0.232569 0  0.156283 0.224265 0  0.152293 0.214968 0  0.150257 0.205058 0  0.150257 0.194942 0  0.152293 0.185032 0  0.156283 0.175735 0  0.162062 0.167431 0  0.169395 0.160461 0  0.17798 0.15511 0  0.187467 0.151596 0  0.197468 0.150064 0  0.207571 0.150577 0  0.217365 0.153112 0  0.226448 0.157568 0  0.234448 0.16376 0  0.241038 0.171437 0  0.245948 0.180282 0  0.248976 0.189935 0  1.1 0 0  1.1 0.41 0  0.1 0.2 0  0.45 0.1 0  0.45 0.3 0  0.55 0 0  0.275 0.1 0  0.275 0.3 0  0.275 0 0  0.55 0.41 0  0 0.205 0  0.825 0 0  0.825 0.41 0  0.275 0.41 0  0.1 0.15 0  0.1875 0.1 0  0.1 0.25 0  0.1875 0.3 0  0.132322 0.2 0  0.241426 0.253518 0  0.241426 0.146482 0  0.264574 0.17974 0  0.264574 0.22026 0  0.138434 0.187348 0  0.153372 0.150948 0  0.148413 0.164094 0  0.176495 0.136535 0  0.22768 0.143571 0  0.138434 0.212652 0  0.148413 0.235906 0  0.176495 0.263465 0  0.22768 0.256429 0  0.23125 0.3 0  0.24769 0.24094 0  0.23125 0.1 0  0.24769 0.15906 0  0.26253 0.193641 0  0.190482 0.137872 0  0.166753 0.146661 0  0.157737 0.244461 0  0.190482 0.262128 0  0.203107 0.261264 0  0.253635 0.22977 0  0.203107 0.138736 0  0.253635 0.17023 0  0.261028 0.206206 0  0.167707 0.251809 0  0.143629 0.224191 0  0.215302 0.2591 0  0.270465 0.245894 0  0.215302 0.1409 0  0.270465 0.154106 0  0.284052 0.202587 0  0.14375 0.3 0  0.209375 0.3 0  0.225966 0.278501 0  0.209375 0.1 0  0.225966 0.121499 0  0.211613 0.273759 0  0.211613 0.126241 0  0.143629 0.175809 0  0.1 0.175 0  0.133484 0.164832 0  0.144491 0.249539 0  0.1 0.225 0  0.133484 0.235168 0  0.3625 0.3 0  0.25691 0.253381 0  0.25691 0.146619 0  0.277205 0.188698 0  0.184724 0.275712 0  0.237372 0.268285 0  0.184724 0.124288 0  0.237372 0.131715 0  0.197578 0.273149 0  0.193656 0.286994 0  0.197578 0.126851 0  0.193656 0.113006 0  0.122953 0.187671 0  0.118362 0.153758 0  0.155372 0.258107 0  0.122953 0.212329 0  0.118362 0.246242 0  0.276394 0.27264 0  0.276394 0.12736 0  0.280965 0.170013 0  0.253125 0.3 0  0.14375 0.1 0  0.253125 0.1 0  0.269489 0.26014 0  0.269489 0.13986 0  0.303639 0.184297 0  0.165625 0.3 0  0.134742 0.273113 0  0.257831 0.274737 0  0.255279 0.128499 0  0.3625 0.1 0  0.165625 0.1 0  0.162031 0.132368 0  0.134955 0.126405 0  0.149334 0.125568 0  0.142936 0.139597 0  0.12695 0.140259 0  0.242514 0.285501 0  0.242514 0.114499 0  0.1 0.125 0  0.117483 0.12555 0  0.11154 0.139776 0  0.121875 0.1 0  0.109143 0.1125 0  0.126805 0.114 0  0.220313 0.29129 0  0.351562 0.287369 0  0.207222 0.2866 0  0.220312 0.10871 0  0.1375 0 0  0.20625 0 0  0.207222 0.1134 0  0.11722 0.17118 0  0.1 0.1625 0  0.0778409 0.16875 0  0.0862762 0.15625 0  0 0.15375 0  0 0.1025 0  0.11722 0.22882 0  0.1 0.2375 0  0 0.3075 0  0.0862762 0.23125 0  0.0598995 0.222547 0  0.0860223 0.2125 0  0.289584 0.181469 0  0.300267 0.16446 0  0.163832 0.269071 0  0.149597 0.273325 0  0.1 0.275 0  0.268498 0.285953 0  0.31875 0.3 0  0.294154 0.254672 0  0.296875 0.3 0  0.293558 0.271845 0  0.285095 0.286799 0  0.324298 0.264316 0  0.307866 0.263745 0  0.317093 0.234901 0  0.315485 0.281219 0  0.316547 0.250625 0  0.344693 0.243731 0  0.331592 0.251147 0  0.35129 0.270663 0  0.338689 0.263683 0  0.340625 0.3 0  0.249849 0.264383 0  0.265097 0.11422 0  0.284688 0.156136 0  0.242188 0.324017 0  0.0856613 0.2625 0  0.132812 0.0612217 0  0.264062 0.0612217 0  0.198437 0.07598340000000001 0  0.0860223 0.1375 0  0.0794526 0.191089 0  0.285228 0.140397 0  0.298655 0.148737 0  0.31875 0.1 0  0.327335 0.15374 0  0.296875 0.1 0  0.312289 0.155283 0  0.313348 0.135607 0  0.321802 0.173916 0  0.298433 0.134116 0  0.112124 0.2625 0  0.127526 0.259083 0  0.121875 0.3 0  0.0682687 0.241503 0  0.1 0.2875 0  0.117762 0.28125 0  0.107813 0.3 0  0.103906 0.313849 0  0.0778409 0.28125 0  0.1375 0.41 0  0.0862762 0.29375 0  0.08886860000000001 0.24375 0  0.307812 0.338778 0  0.307812 0.292227 0  0.33216 0.279164 0  0.387888 0.266414 0  0.264063 0.31948 0  0.110937 0.07598340000000001 0  0.242188 0.07598340000000001 0  0.319914 0.11839 0  0.340625 0.1 0  0.334448 0.133793 0  0.329687 0.108539 0  0.346259 0.118491 0  0.360334 0.173636 0  0.327539 0.205033 0  0.132812 0.288712 0  0.362436 0.278836 0  0.368105 0.259418 0  0.4125 0.41 0  0.329687 0.324017 0  0.329687 0.292306 0  0.285938 0.318952 0  0.417187 0.338778 0  0.324481 0.14148 0  0.351562 0.106771 0  0.40625 0.1 0  0.341028 0.168342 0  0.319221 0.190479 0  0.335292 0.184501 0  0.305563 0.20794 0  0.220313 0.31948 0  0.132812 0.332772 0  0.0865876 0.311259 0  0.0598995 0.302453 0  0.0906541 0.343255 0  0.353543 0.255837 0  0.36574 0.237633 0  0.405007 0.254279 0  0.275795 0.352123 0  0.4125 0 0  0.35493 0.137394 0  0.366563 0.120618 0  0.35917 0.205246 0  0.198438 0.318952 0  0.0626109 0.263892 0  0.40625 0.3 0  0.354809 0.155936 0  0.386512 0.146872 0  0.373101 0.159939 0  0.384375 0.1 0  0.343394 0.19929 0  0.350682 0.185683 0  0.368101 0.189748 0  0.344016 0.221511 0  0.391108 0.213329 0  0.376279 0.204783 0  0.398843 0.182768 0  0.375804 0.222746 0  0.390665 0.196958 0  0.394004 0.23518 0  0.359883 0.222828 0  0.419908 0.204359 0  0.404243 0.204783 0  0.412615 0.224526 0  0.20625 0.41 0  0.165625 0.325257 0  0.0347982 0.244954 0  0.379558 0.247154 0  0.34165 0.147603 0  0.372264 0.136992 0  0.388988 0.121989 0  0.373437 0.108554 0  0.351562 0.31948 0  0.391367 0.16527 0  0.399572 0.223324 0  0.452011 0.227371 0  0.40877 0.239392 0  0.431491 0.237337 0  0.421224 0.250459 0  0.449619 0.262098 0  0.418865 0.276779 0  0.437063 0.252274 0  0.415673 0.263227 0  0.430988 0.266772 0  0.402767 0.273419 0  0.452967 0.244883 0  0.428125 0.3 0  0.408502 0.286186 0  0.384375 0.3 0  0.392267 0.285807 0  0.465927 0.219339 0  0.43489 0.283846 0  0.376424 0.286289 0  0.625 0.3 0  0.473533 0.205186 0  0.461713 0.255517 0  0.5375 0.3 0  0.465725 0.235405 0  0.44631 0.201425 0  0.471875 0.3 0  0.494307 0.227729 0  0.459448 0.206736 0  0.462294 0.180792 0  0.478933 0.227536 0  0.486793 0.21381 0  0.486322 0.251373 0  0.50065 0.215318 0  0.54005 0.175389 0  0.474633 0.189893 0  0.512916 0.208697 0  0.49531 0.199967 0  0.475889 0.175275 0  0.625 0.1 0  0.459311 0.153933 0  0.513645 0.242704 0  0.392892 0.248539 0  0.374815 0.271913 0  0.365974 0.14871 0  0.395312 0.109184 0  0.417061 0.123981 0  0.483196 0.277003 0  0.381967 0.179632 0  0.429898 0.219374 0  0.433473 0.206165 0  0.43149 0.181038 0  0.444208 0.215487 0  0.472985 0.247309 0  0.49375 0.3 0  0.475579 0.262714 0  0.49916 0.274293 0  0.501175 0.184809 0  0.514164 0.225681 0  0.543648 0.214977 0  0.5341630000000001 0.23481 0  0.527396 0.216171 0  0.5375 0.1 0  0.534548 0.202315 0  0.561545 0.192513 0  0.5494289999999999 0.201221 0  0.570923 0.218346 0  0.412582 0.149833 0  0.489327 0.264745 0  0.502439 0.254775 0  0.462391 0.271166 0  0.496775 0.241732 0  0.5294410000000001 0.268606 0  0.482812 0.291099 0  0.46879 0.285038 0  0.452663 0.284065 0  0.51789 0.257882 0  0.53408 0.252026 0  0.560142 0.243543 0  0.545708 0.243474 0  0.547532 0.229019 0  0.55282 0.265323 0  0.398971 0.153424 0  0.400349 0.135684 0  0.410135 0.168145 0  0.428823 0.161323 0  0.415266 0.183779 0  0.329687 0.0810483 0  0.395312 0.0612217 0  0.373437 0.318952 0  0.439062 0.324017 0  0.561816 0.229354 0  0.585029 0.239287 0  0.431827 0.139854 0  0.446796 0.168929 0  0.351562 0.07598340000000001 0  0.395313 0.318944 0  0.54337 0.150762 0  0.460937 0.31948 0  0.418412 0.137529 0  0.428125 0.1 0  0.442783 0.152332 0  0.450742 0.134294 0  0.373437 0.0805201 0  0.384383 0.342558 0  0.482812 0.318952 0  0.429239 0.127457 0  0.444274 0.117405 0  0.426548 0.113815 0  0.49375 0.1 0  0.488954 0.113984 0  0.457973 0.121842 0  0.471621 0.137346 0  0.515625 0.325257 0  0.48125 0.41 0  0.417187 0.07598340000000001 0  0.496363 0.126778 0  0.479043 0.155715 0  0.439062 0.0805201 0  0.481795 0.126919 0  0.471875 0.1 0  0.489227 0.142159 0  0.515625 0.1 0  0.520062 0.147117 0  0.501244 0.161791 0  0.505431 0.112984 0  0.505344 0.14029 0  0.526563 0.119081 0  0.5181750000000001 0.131908 0  0.539868 0.136937 0  0.460937 0.108383 0  0.474242 0.114415 0  0.460937 0.0810483 0  0.487841 0.167168 0  0.526563 0.0612217 0  0.526563 0.106406 0  0.537619 0.112743 0  0.58125 0.1 0  0.559375 0.1 0  0.482812 0.08105569999999999 0  0.471883 0.0587655 0  0.570312 0.129396 0  0.548437 0.07598340000000001 0  0.504687 0.08105569999999999 0  0.49375 0.0470127 0  0.570312 0.112663 0  0.592798 0.12103 0  0.553986 0.12103 0  0.570312 0.0805201 0  0.48125 0 0  0.114787 0.2 0  0.160769 0.284765 0  0.175816 0.288361 0  0.162602 0.116048 0  0.154687 0.07598340000000001 0  0.176562 0.0805201 0  0.0598995 0.147547 0  0.307812 0.109924 0  0.291279 0.117157 0  0.278491 0.112989 0  0.285937 0.07598340000000001 0  0.307812 0.0805201 0  0.296928 0.196743 0  0.318141 0.218507 0  0.330208 0.227509 0  0.301397 0.225668 0  0.302706 0.241401 0  0.292574 0.21424 0  0.282762 0.230935 0  0.284351 0.244775 0  0.269553 0.23261 0  0.278572 0.217242 0  0.226924 0.342606 0  0.446928 0.185396 0  0.515625 0.3 0  0.504687 0.288879 0  0.515256 0.276534 0  0.529479 0.285328 0  0.58125 0.3 0  0.541969 0.272936 0  0.559375 0.3 0  0.556796 0.282529 0  0.543473 0.287206 0  0.581429 0.267774 0  0.566728 0.271171 0  0.570869 0.255585 0  0.577404 0.283865 0  0.603125 0.3 0  0.597531 0.28035 0  0.570312 0.338778 0  0.592188 0.292492 0  0.603513 0.256094 0  0.614063 0.286265 0  0.610329 0.27064 0  0.632708 0.251285 0  0.657223 0.261594 0  0.618789 0.257807 0  0.614188 0.22987 0  0.630935 0.265614 
[...]
<PointData  Scalars="p"> 
	<DataArray  type="Float64"  Name="p"  format="ascii">
0.0004996978663683832 0.0004560077284987183 -2.762151948470745e-08 -1.361139648455374e-06 0.0005509581203454624 0.0005230167412005837 0.00014998026915546807 0.00010905133667747282 -0.0002928246516717492 -0.00031743726828044517 -0.00036455420693049233 -0.00041236391756148454 -0.0004615053952208156 -0.0005198735352465721 -0.0006186425407754288 -0.0007546784821939659 -0.0008558602637430778 -0.0010056085869132052 -0.0007317203105142721 -0.00031573043195279706 0.00024894254572013986 0.0009263612547039648 0.0014621900019952659 0.0017904165235779353 0.0017770185164955358 0.0014199980054564183 0.0008826058914975619 0.0002104100052160728 -0.0004323555470380805 -0.0007047726167667666 -0.000881677585154154 -0.0007420190347847993 -0.0006107013517033566 -0.00046692474758757736 -0.0003658616827099968 -0.0003099221199864541 -0.0002833942141329018 -0.0002841438864587848 -0.0002881265277170292 0.00020007181629611606 8.594674625511691e-05 0.0011713667844694383 -1.5110886818086648e-05 0.00017682395181304738 0.00012980953144550123 -0.00010120419654893609 -0.00015957683566343995 0.0001201252540661826 0.00013990037940966017 0.0007735787006839708 0.0001227475242508767 0.0002110060336492157 0.00011232949040119935 0.0008446261167532001 8.047287852774778e-05 0.0008350534396764513 3.1819075405511684e-05 0.0015936428738022308 -0.00044666727897269053 -0.0002877697057273428 -0.000279872885692507 -0.00035722939124646814 0.0015381816017063512 0.0003362729526386814 0.0007410115858023533 -0.0003136631402121642 -0.00037416410548576885 0.0015605248475425936 0.0007619947342118356 -0.00034865591214375117 -0.0005251672948592607 -0.00013986475455355835 -0.0004298605657007392 -6.1007822202585916e-05 -0.0002770659294194991 -0.00029357888517627176 -0.0005711483868545616 -0.00018637218569519698 0.0002238455889332313 -0.0006665310541845671 -0.0006979326842547833 -0.000394318535817382 -0.0005750997211410285 -0.0002749095255915303 -0.0003152400439814818 -0.00023731498486295543 0.001212445726108348 -0.000608303582874553 -0.0004217883851095832 -0.00046494346327949837 -0.00023717850632180138 -0.0003165622836742763 0.00035184134378453527 -0.00010684911855142834 -0.0003697423546832239 1.9910977837656957e-06 -0.0002426934056102507 -0.00045877953651044445 -0.0003500625254967165 0.001180436182326438 0.0010511131404730347 0.0010407230152112263 0.0005632088626590267 0.0010678905327505643 0.001064887657126806 7.921849322312102e-05 -0.0004276261319016416 -0.00024559235907138075 -0.00029275755029939507 -0.00024388482868846522 -0.0004506020071226992 -0.00018556735016795445 -0.00030541950535915944 -0.0003967261498560592 -0.00014625394838222166 -0.00029416174352126304 -7.021407880673118e-05 0.0013752176121128606 0.0009022688360211072 0.00026786922161080925 0.0013762471543012189 0.0009003351353899913 -0.00035453474379029145 -0.00022591912629204569 -0.00026881448221245305 -0.00017580761238597268 0.00038650628660685154 -7.777957188329617e-05 -0.00041662185527927063 -0.00023012263872749505 -0.00031361887264824375 0.0001927774706370451 0.0005258004414913503 -0.0003782903679468763 -0.00022864576504653207 -0.00020188376183133923 0.00026224976568056115 0.00014965278417656053 0.0005281420435018121 0.00037960409285247226 0.0004568555475996818 0.0006779984257168201 -0.0002887436988839233 -0.00017270584950459974 0.0006605379962504674 0.0006237193108025789 0.000743528946495626 0.0004944970724655049 0.0005763416361826305 0.0005254907972484474 -0.00020324518208889906 2.708236614377357e-05 -0.00025066280639024334 -0.00011393258500611368 0.00043252101825477313 0.0002742713374804178 -0.00014121294415386868 0.0011121290250274607 0.0009451190473924594 0.0009081046067235484 0.0008551565449976941 0.0007127835785387582 0.0005800589111163154 0.0011117820437874138 0.0009599258878679188 0.0005373842852399508 0.0009231759994599876 0.0008614987422958993 0.0010194748922665382 -0.000293432982996179 -0.0002893186279440393 5.7637061148282005e-05 0.00032402151482530616 0.0006447981896787357 -0.00027288947969832523 -6.973881850385427e-05 -0.0003940075127777648 -0.00013532652273190682 -0.00032559954834278593 -0.00024865091190007943 -0.0002103925565359151 -0.00030584390379938183 -0.00032535476842085063 -0.00017417568036510415 -0.000302120215437316 -0.0001531343266697893 -0.00021330061955010494 -9.233515774372833e-06 -0.00011342962207827659 -1.0375154680565284e-05 -0.00042173236914505585 -0.00017954131609998583 -0.0002501299065839901 6.0321318911189285e-06 0.0007397742212583348 0.00042173908357401297 7.958110777517569e-05 0.00019860785310332944 0.0007313450260481604 0.0009839517770056474 -0.00023684048657932584 -0.00027084266988420153 -0.00016472295056709502 -0.0003865261842350239 -0.00014357046970965936 -0.00032121184646927815 -0.0003179983559582887 -0.00036319208138583983 -0.0002637822381487012 0.0007176419148554823 0.0006684642116322091 0.00046526701883953443 0.0008112721633052511 0.0005867058992044257 0.0005616631760881339 0.0005003756112936687 0.0004708612453000797 0.000619854708742254 0.0003695729003858323 0.0005670567766888718 0.00086582884681114 2.7902452554890302e-05 -0.0001504817039353075 -0.00010226381453194506 0.00018242246169633224 -4.884303205360219e-05 0.0004841696967928194 7.540593970924946e-05 -0.0002871594831350039 -0.0002047677507008127 -0.000392875925605709 -0.00024215701939206438 -0.000349647115007384 -0.0005411089421897522 -0.0003422832915120975 0.0004391431870911865 6.938095541653902e-05 6.694170228200755e-05 0.00015456458898314252 2.629927531046616e-05 -7.350715568323383e-05 -5.198028112917514e-05 0.00016578111787469196 -0.00035921853230050924 -0.00025034665462033947 -0.00012664777661070337 -0.0004562789437322041 -0.0003393637439435643 -0.00040045245401640854 -0.0003285101906192591 -8.30415048627228e-08 0.00037967011613120044 0.0005085458090164315 0.0005502599723949608 0.00044031185287521493 -4.2812992051556825e-05 -6.495355582104743e-05 0.00020515847545267494 7.711206718408669e-05 -6.228666092827882e-06 -0.0004780280342733638 -0.00036869171191159417 -0.00036245737808047416 0.00010733787546974845 0.0006983033545613423 0.00018103993017032707 -0.0005266543442979197 -0.000545411017488804 -0.0005919739077953055 -0.0001817583117440308 -0.0003736733473474394 -0.0004622128375605601 -0.0004933973039400583 -0.0002598405675812995 -0.00024528982635678794 -0.00036917469299007293 -0.0005280965626975984 -0.00016752326176301671 -0.00044132660816078066 2.8356870578885034e-05 -0.00020853054322110545 -0.0002638089253134045 -0.0003240143204956161 -3.9280644981673996e-05 0.0002345238376995782 0.00024505720372908256 0.000727269326957956 7.262919167993169e-05 -0.0004523627683437827 -0.0004997391114412881 -0.0003425005734115198 -0.00026299281477124795 5.619335381240592e-05 -0.0005913451514863298 -9.371426712813364e-05 7.811317586467581e-05 0.00011774815174679303 0.00014149523152227702 0.000213193907286679 0.00020380088112467617 0.00023215943807459847 0.0002202228152870603 0.0002411358762979265 0.0002402209436207342 0.0002222682293512988 0.00017655360422747516 0.00019101482434094862 0.00020519115857240162 0.00013833090915887382 0.0001865535226259262 4.068998544495332e-05 0.00020858831873531362 0.00012743632528717115 5.2303734181545444e-05 -6.04145139757822e-07 0.0001590505604747991 7.370932345238659e-05 0.00011305811231988728 -0.0001221296953568829 0.00014637732118556984 7.820957942677417e-06 -4.712144371113336e-05 -5.4173651212963706e-05 6.0693337785973186e-05 2.4976639140550932e-05 5.192578736346354e-05 -1.032362422175523e-05 7.260058149415227e-05 7.477087784210826e-07 -3.763548159157227e-05 3.3451174239835195e-05 3.6242454515709754e-05 0.00027502878624699505 -2.6067955051925256e-05 -8.8428383936465e-05 0.00013616031193677843 0.0001293975336475562 -0.000546599752654479 -0.00022542302798500704 -0.0002234577558175138 7.845433100836941e-05 -0.0005746913972147075 -4.184293963836406e-05 -0.0001756353974058396 -0.00030834830895922524 -3.529110745658402e-05 0.00011029348330323852 0.00011450725542748352 0.00010456919024269178 2.531959658001741e-05 8.18620092051902e-05 -8.028166270240284e-05 -0.00015427057723334256 -0.00016340857836786397 -0.00011203059144317462 0.00017020810831112885 -8.142549489396928e-05 -6.84924953522388e-05 -0.00010817933680703362 -0.00013220567418609745 -0.00041718853773535617 4.1161278257911715e-05 -2.6386682520954014e-05 0.00015397561561088192 -2.9254955850688974e-06 -6.0540000250946365e-05 0.00010786884230900323 0.00013335763279070066 0.00017691092347623343 -7.971287524217972e-05 -0.00012828955045734045 -0.00013678366717202427 -0.0001519053382188487 -0.00016946072259129146 -6.490373853271006e-05 -0.0005216958113845696 -0.0004010926535330552 -0.0004991472577722375 -0.0003174610278172987 -0.0004328180442692807 -8.920837160331965e-05 -2.2928780002560633e-05 0.0001059668087905159 0.00017996896973780728 -0.00016072830434018612 -5.857249020909267e-05 -0.0001987140293979758 -0.00015740363391104735 -7.47093122306806e-05 0.00014879848883875578 0.000198670661907473 0.0001820178899711959 -0.000293133603848434 -8.111998034069833e-05 -0.00015612187999464663 -5.5917302845595905e-05 -9.798600008825686e-05 0.00012675116434388443 0.00016471291735844194 -0.00016057172897783093 -5.2117330131714543e-05 -0.00014338221801533306 8.598323111123913e-05 9.501651079444106e-05 -4.11850499078043e-06 6.164598712481265e-05 0.0001663740919024044 0.0001892614812061062 -3.8688079059545294e-05 0.00014165006289586896 8.650016300315016e-05 -2.9307326605187844e-05 9.181436198035724e-05 3.969704666919542e-05 0.00012985776566070052 0.00013490392971251825 0.0002042631475038906 0.0001555005708384296 0.00013970471213043724 0.000179532558671236 0.00019360378749095294 0.0001964083598934192 0.00022953250676643801 7.2592710953193305e-06 6.0276433874991406e-05 -1.6267231995429312e-06 9.926657310261115e-05 8.887367889914915e-05 0.0001657324003033438 0.00020029435094310179 0.00023692295099615585 0.00021140332750516628 4.443315835078935e-05 8.426672723990385e-06 0.00023641017929258942 0.00015572126574992494 7.074243912351776e-05 2.9883982750409634e-05 0.0002343463944413174 0.0002473231468435144 0.00023429781561683049 0.00020443580204357922 1.6928914317285896e-05 0.0013407060848501333 0.00020214553681709128 1.096182688689561e-05 0.00020251698593820515 0.000359508329708868 0.00025938221115204616 0.0007555971943892651 -0.00022266628248681676 -0.00021314011867980194 -0.00017546841578837017 -1.0047936759564501e-05 -5.683247608862304e-05 -0.00031454314516817465 -0.0003243077407957737 -0.0002894458332476015 -0.0003591030682214887 -0.0003732906245372036 -0.0003405886450999457 -0.0003899560629811245 -0.00041334509254345924 -0.00039722594826228485 -0.00034826452454071483 0.00011574648006229622 -0.00016180078382737448 9.043626140688266e-05 5.8469596406806725e-05 -6.509126002414894e-06 2.1018992900850112e-05 6.353546215095777e-05 -3.691828059796895e-05 7.33300393132741e-05 1.5465114860586135e-05 2.6564988186437276e-05 3.1532707500658394e-06 -1.5084537664162922e-05 -6.435024996810083e-05 2.9070442169543965e-05 5.7294095800119266e-05 4.987314279638963e-05 0.00011150776364482751 4.913535435683793e-05 2.9082439955479746e-05 5.310333140206312e-05 4.955093649273005e-05 7.786842753090982e-05 9.119494211680426e-05 6.098170923772168e-05 4.2336416483466315e-05 7.302909388896673e-05 6.184686785272212e-05 6.173560669511077e-05 0.00010130821745756374 9.585073386752244e-05 6.532513373828983e-05 7.455545178461522e-05 5.1283717602699915e-05 7.763010862602991e-05 0.00011946789835396323 6.993001234053589e-05 2.5265595391697997e-05 -1.735545601582086e-05 6.495439639428899e-05 9.86493866491731e-05 7.35351064319469e-05 4.449604421635816e-05 9.402625967687046e-05 7.356672925945128e-05 0.00010998145294674366 7.817223515414847e-05 9.506020577834739e-05 0.00010258187756009828 0.00010167945202548977 8.451738347748363e-05 9.533879325709627e-05 0.00010887578576097364 9.828489884222137e-05 0.0001319100514420578 -2.21206596736326e-05 0.00011757289045902861 9.152513081708498e-05 0.00011310017946386697 6.726821672750049e-06 9.629684653221386e-05 6.966772080189919e-05 0.00010051648438913897 0.00011054988687345438 0.00010429457992962059 5.9010867020687415e-05 7.268501955014946e-05 9.059999226305519e-05 9.601816294986962e-05 9.048982626203018e-05 3.492200012552973e-05 3.122370294167482e-05 5.333747753904505e-05 3.451878025289234e-06 5.3206449596593027e-05 9.649705679575081e-05 -4.3561010480013936e-05 -2.9732083366244957e-05 0.00011592714973953558 8.613257440008035e-05 8.736559641182172e-05 0.00012357635672407793 0.00016184481999364066 0.00016192209741391922 0.0002176987002222891 0.00019782420457564463 9.460496359047002e-05 8.936307283384004e-05 4.0094823285793664e-05 4.4812297337873694e-05 0.00012451785515459125 3.690484427005181e-05 2.9240841603077313e-05 -5.805948999712044e-05 -1.897398670106764e-05 0.0001607770595323488 3.7848188560343935e-05 0.0001195846947467957 7.498899329867681e-05 -4.299116106068947e-05 -0.00010509317235043082 -2.6315537561118453e-05 -7.623364673920811e-05 0.00013680608043620834 2.956458444972913e-05 9.945796211406984e-05 -6.033850978768714e-05 -9.394636644794601e-05 -8.622962196000327e-05 0.00011860011079519963 -2.6211673320602538e-05 4.2307546153370514e-05 2.7274385941898523e-05 0.0001139200804834803 5.309438073548236e-05 -6.862797327895527e-05 -2.666092932545746e-05 4.5610531260477096e-05 3.40433762302191e-05 8.077499043876777e-05 0.00026820220896464555 5.951244015162367e-05 -0.00010960303051005645 0.0001305983096425146 -3.89467108172064e-05 0.00010982324454114472 0.0001289522084377791 9.093163469741435e-05 0.0001679438077600417 0.00014943354862703964 0.0001867362741226451 2.2616693881612597e-05 7.932321675188325e-05 0.00014220509648483885 0.00014555084775834043 0.0001249807680305432 0.00018241723890953935 0.00029084165676566953 0.0001945314217734136 0.0002673105877502944 0.00019408737852863992 0.00020994134766906693 0.0002242203826350949 0.00019742804120774572 0.00017095546330943854 0.00018263237338911431 0.0002181923255328936 0.00018438777442975713 0.000124924694178499 0.00015869459735687894 7.924165540353545e-05 0.00011280217638539946 5.116640229668299e-05 0.00014280851114528573 0.00013652607472690358 0.00021866490745975491 0.00011845086563053831 8.915382977524841e-06 0.0001727546411582784 0.00018575168795030645 0.00022779188898501866 0.0002095482790297422 0.00026192286690394624 0.00027191734982381775 0.00022817445102278557 0.00025693378963512865 0.00025463558659657727 0.00018105076742622474 0.0002477061505933605 0.0002476153468912573 0.00023455919100729368 0.0002951596701796592 0.00023512887273194777 0.00029060739048064453 0.000251644833838057 0.0002463166709634739 0.0002665324487674261 7.885859918881411e-05 0.00021894246218540265 0.00015191003018610804 5.146365016631942e-05 0.00028144755887166855 0.00027960268033727534 0.0002585197353321707 0.00031422911104211595 0.00016501546643946644 0.0002777056522367232 0.00026860559999997483 0.0002506618108677533 -6.340969569972673e-07 0.0003338721714165652 0.00024000376871492255 0.00027123376454842247 0.00032022846453824363 0.00017501125852479931 0.00021516821129349302 0.00030919801371153934 0.00021184038424073879 0.00020092052785515961 0.0001687595583772478 0.0001488726176976161 9.12339576378107e-05 0.00028600884767450565 8.889610826455646e-05 0.0001816839831101576 7.882690321295117e-05 0.00011552912284649896 7.139758263119986e-05 0.00013436518906086444 0.00014655294888963772 0.00011948345923463782 1.2673538486741585e-05 -8.711685554237197e-06 5.1944931575850764e-05 2.731915596275793e-05 3.0575529219740924e-05 -3.042450962721013e-05 -4.113226911519221e-05 -6.94936158852103e-05 -8.873830785478728e-05 -3.222562487628807e-05 0.00010919383624421702 8.418962191334382e-05 9.689592201047567e-05 4.069445562706301e-05 0.00020028115139141355 2.3674969357606426e-05 0.00011770543511473608 0.00017916392929820147 0.00017184007517104033 7.511411826630774e-05 -1.2308829227864325e-05 -1.9877230265088023e-05 0.0001966473097290744 -1.0248871581477619e-05 0.00010093988141439121 0.00033465492101791524 1.6616279044189436e-05 6.721839937906662e-05 3.7042650362173474e-06 -4.182144212099527e-05 0.00010586073390364125 1.0372840720183391e-05 5.221654032885291e-05 0.00015312759740567972 9.122347262758769e-05 9.794568927485282e-05 0.0002081339527119876 9.638887830329592e-05 0.00012660067310284157 8.049213014352515e-05 0.00014721706853535488 0.0001473218402002103 -4.130182672196592e-06 -7.692638488706994e-05 -0.00011344125851860344 -0.00015321593166729548 0.00017635854131871847 0.00023159686627780124 9.010522694939544e-05 1.34695940803745e-05 0.00016998331390596298 1.9900801720203106e-05 -8.629015620514947e-05 0.00014728378584228792 4.571400870830062e-05 0.0006107948095079608 0.000482424620792733 0.0001663741374639466 0.00022785236541699903 0.00020199193057597736 7.767016457722532e-05 -9.913726642851e-06 -1.4311737252302072e-05 2.6063921418484597e-05 2.3654141896487837e-05 7.420387699190327e-05 0.00015510540966728412 1.915366305524998e-05 0.0002512242923561642 0.0004901813536064336 0.0004413899753616028 0.00045994264146200577 1.8110844244761483e-05 0.00013535878612754712 0.0004698729049467405 0.00044291702119232847 9.006208181459024e-05 0.0006842541459553638 7.358194355533208e-05 0.00015065489953365658 4.7381271767472546e-05 9.463975407806799e-05 0.0003225678982987493 0.0005049301625064165 7.246197320718992e-06 0.00011408781706942759 9.585626438998062e-05 0.0003917924849704336 8.705120731119141e-05 0.0006112267925585747 0.00021425004739318538 0.00020034866658746937 0.00014878070610803293 0.0005123904114357818 0.0003144998066901927 0.00029590349564117516 0.00015354364631941096 0.00024023704180397534 0.00026049278986366956 0.00022393794310802642 7.969949352715276e-05 9.722893654941906e-05 8.306190403432434e-05 8.407897727079653e-05 0.0001963217723714404 0.00012844772279769812 0.00044702703629963605 0.00012386007962772986 5.453417751211051e-05 0.0004147889487816804 0.0006178776764282741 -5.926456104285709e-05 3.140336625968948e-05 0.00018051506742020786 0.00016833965921656994 0.000792621697177411 0.0005084912062120015 6.718786171113824e-05 0.0006995430020666384 7.553252667254781e-05 -8.944423666287714e-05 0.0005323149111218726 6.911334435503713e-05 9.528838006516113e-05 2.5437592299067876e-05 0.00049590263985277 3.7487742420937155e-05 0.0005008929437880978 0.0004961792233491011 0.00010988591451883235 0.00010844567619094582 0.00010067216422122142 7.042515079992958e-05 -2.692467254651442e-06 7.875905166813813e-05 0.0001018034291586453 -0.00018058470566602295 0.000151007685717984 -0.00020616683228591188 -0.00011699678200321796 -2.9025519597786937e-05 0.00015364863962655408 8.379701539732252e-05 6.850592954765106e-05 0.00018906228832303872 0.00011320518309747258 0.00014877963694732998 0.00014712193939129577 0.00021921932667443334 0.00018395080383690004 9.54559032753485e-05 0.00021999630603137177 0.00024697912323438833 0.00022799834134334748 0.00024162963142438304 0.00022182291334294082 0.0002457883193334543 0.00023801494711547184 0.00021488318751494424 0.0002110388986133142 6.426149812731774e-05 0.000182982412406297 0.00016954102789856572 0.000299716444180458 0.000466030633631271 0.0004357824055701335 0.0004847292798276067 9.840094844699223e-05 0.00011093643925421374 4.314436284785025e-05 0.000463000666583451 0.0003650135038628706 0.00015511985058757786 0.00028834300976718965 0.0004242551534434508 0.00019422928391250058 0.0007886656829148453 0.0007603950283167739 8.444287755470165e-05 9.433995119344629e-05 0.00011633522371996145 0.00011102429700696214 1.9217386589369934e-05 0.0001354016581701611 0.00017093869408976657 -5.042061374006641e-05 9.831442028397332e-05 0.00011996479757333486 6.919840215011788e-05 -8.942972745538994e-06 8.384216160402284e-05 0.00019470029980264104 4.152461961749079e-05 5.483206528167059e-05 3.0081279039331767e-05 8.286481410828636e-05 7.324780105157193e-05 4.3116099147584726e-05 7.91222361790666e-05 6.477153811597713e-05 0.0001245513969521003 8.33