<?xml version="1.0"?>
<VTKFile type="UnstructuredGrid"  version="0.1"  >
<UnstructuredGrid>
<Piece  NumberOfPoints="1289" NumberOfCells="2413">
<Points>
<DataArray  type="Float64"  NumberOfComponents="3"  format="ascii">0 0 0  0 0.41 0  2.2 0.41 0  2.2 0 0  0.1 0.1 0  0.1 0.3 0  0.8 0.3 0  0.8 0.1 0  0.25 0.2 0  0.248976 0.210065 0  0.245948 0.219718 0  0.241038 0.228563 0  0.234448 0.23624 0  0.226448 0.242432 0  0.217365 0.246888 0  0.207571 0.249423 0  0.197468 0.249936 0  0.187467 0.248404 0  0.17798 0.24489 0  0.169395 0.239539 0  0.162062 0.232569 0  0.156283 0.224265 0  0.152293 0.214968 0  0.150257 0.205058 0  0.150257 0.194942 0  0.152293 0.185032 0  0.156283 0.175735 0  0.162062 0.167431 0  0.169395 0.160461 0  0.17798 0.15511 0  0.187467 0.151596 0  0.197468 0.150064 0  0.207571 0.150577 0  0.217365 0.153112 0  0.226448 0.157568 0  0.234448 0.16376 0  0.241038 0.171437 0  0.245948 0.180282 0  0.248976 0.189935 0  1.1 0 0  1.1 0.41 0  0.1 0.2 0  0.45 0.1 0  0.45 0.3 0  0.55 0 0  0.275 0.1 0  0.275 0.3 0  0.275 0 0  0.55 0.41 0  0 0.205 0  0.825 0 0  0.825 0.41 0  0.275 0.41 0  0.1 0.15 0  0.1875 0.1 0  0.1 0.25 0  0.1875 0.3 0  0.132322 0.2 0  0.241426 0.253518 0  0.241426 0.146482 0  0.264574 0.17974 0  0.264574 0.22026 0  0.138434 0.187348 0  0.153372 0.150948 0  0.148413 0.164094 0  0.176495 0.136535 0  0.22768 0.143571 0  0.138434 0.212652 0  0.148413 0.235906 0  0.176495 0.263465 0  0.22768 0.256429 0  0.23125 0.3 0  0.24769 0.24094 0  0.23125 0.1 0  0.24769 0.15906 0  0.26253 0.193641 0  0.190482 0.137872 0  0.166753 0.146661 0  0.157737 0.244461 0  0.190482 0.262128 0  0.203107 0.261264 0  0.253635 0.22977 0  0.203107 0.138736 0  0.253635 0.17023 0  0.261028 0.206206 0  0.167707 0.251809 0  0.143629 0.224191 0  0.215302 0.2591 0  0.270465 0.245894 0  0.215302 0.1409 0  0.270465 0.154106 0  0.284052 0.202587 0  0.14375 0.3 0  0.209375 0.3 0  0.225966 0.278501 0  0.209375 0.1 0  0.225966 0.121499 0  0.211613 0.273759 0  0.211613 0.126241 0  0.143629 0.175809 0  0.1 0.175 0  0.133484 0.164832 0  0.144491 0.249539 0  0.1 0.225 0  0.133484 0.235168 0  0.3625 0.3 0  0.25691 0.253381 0  0.25691 0.146619 0  0.277205 0.188698 0  0.184724 0.275712 0  0.237372 0.268285 0  0.184724 0.124288 0  0.237372 0.131715 0  0.197578 0.273149 0  0.193656 0.286994 0  0.197578 0.126851 0  0.193656 0.113006 0  0.122953 0.187671 0  0.118362 0.153758 0  0.155372 0.258107 0  0.122953 0.212329 0  0.118362 0.246242 0  0.276394 0.27264 0  0.276394 0.12736 0  0.280965 0.170013 0  0.253125 0.3 0  0.14375 0.1 0  0.253125 0.1 0  0.269489 0.26014 0  0.269489 0.13986 0  0.303639 0.184297 0  0.165625 0.3 0  0.134742 0.273113 0  0.257831 0.274737 0  0.255279 0.128499 0  0.3625 0.1 0  0.165625 0.1 0  0.162031 0.132368 0  0.134955 0.126405 0  0.149334 0.125568 0  0.142936 0.139597 0  0.12695 0.140259 0  0.242514 0.285501 0  0.242514 0.114499 0  0.1 0.125 0  0.117483 0.12555 0  0.11154 0.139776 0  0.121875 0.1 0  0.109143 0.1125 0  0.126805 0.114 0  0.220313 0.29129 0  0.351562 0.287369 0  0.207222 0.2866 0  0.220312 0.10871 0  0.1375 0 0  0.20625 0 0  0.207222 0.1134 0  0.11722 0.17118 0  0.1 0.1625 0  0.0778409 0.16875 0  0.0862762 0.15625 0  0 0.15375 0  0 0.1025 0  0.11722 0.22882 0  0.1 0.2375 0  0 0.3075 0  0.0862762 0.23125 0  0.0598995 0.222547 0  0.0860223 0.2125 0  0.289584 0.181469 0  0.300267 0.16446 0  0.163832 0.269071 0  0.149597 0.273325 0  0.1 0.275 0  0.268498 0.285953 0  0.31875 0.3 0  0.294154 0.254672 0  0.296875 0.3 0  0.293558 0.271845 0  0.285095 0.286799 0  0.324298 0.264316 0  0.307866 0.263745 0  0.317093 0.234901 0  0.315485 0.281219 0  0.316547 0.250625 0  0.344693 0.243731 0  0.331592 0.251147 0  0.35129 0.270663 0  0.338689 0.263683 0  0.340625 0.3 0  0.249849 0.264383 0  0.265097 0.11422 0  0.284688 0.156136 0  0.242188 0.324017 0  0.0856613 0.2625 0  0.132812 0.0612217 0  0.264062 0.0612217 0  0.198437 0.07598340000000001 0  0.0860223 0.1375 0  0.0794526 0.191089 0  0.285228 0.140397 0  0.298655 0.148737 0  0.31875 0.1 0  0.327335 0.15374 0  0.296875 0.1 0  0.312289 0.155283 0  0.313348 0.135607 0  0.321802 0.173916 0  0.298433 0.134116 0  0.112124 0.2625 0  0.127526 0.259083 0  0.121875 0.3 0  0.0682687 0.241503 0  0.1 0.2875 0  0.117762 0.28125 0  0.107813 0.3 0  0.103906 0.313849 0  0.0778409 0.28125 0  0.1375 0.41 0  0.0862762 0.29375 0  0.08886860000000001 0.24375 0  0.307812 0.338778 0  0.307812 0.292227 0  0.33216 0.279164 0  0.387888 0.266414 0  0.264063 0.31948 0  0.110937 0.07598340000000001 0  0.242188 0.07598340000000001 0  0.319914 0.11839 0  0.340625 0.1 0  0.334448 0.133793 0  0.329687 0.108539 0  0.346259 0.118491 0  0.360334 0.173636 0  0.327539 0.205033 0  0.132812 0.288712 0  0.362436 0.278836 0  0.368105 0.259418 0  0.4125 0.41 0  0.329687 0.324017 0  0.329687 0.292306 0  0.285938 0.318952 0  0.417187 0.338778 0  0.324481 0.14148 0  0.351562 0.106771 0  0.40625 0.1 0  0.341028 0.168342 0  0.319221 0.190479 0  0.335292 0.184501 0  0.305563 0.20794 0  0.220313 0.31948 0  0.132812 0.332772 0  0.0865876 0.311259 0  0.0598995 0.302453 0  0.0906541 0.343255 0  0.353543 0.255837 0  0.36574 0.237633 0  0.405007 0.254279 0  0.275795 0.352123 0  0.4125 0 0  0.35493 0.137394 0  0.366563 0.120618 0  0.35917 0.205246 0  0.198438 0.318952 0  0.0626109 0.263892 0  0.40625 0.3 0  0.354809 0.155936 0  0.386512 0.146872 0  0.373101 0.159939 0  0.384375 0.1 0  0.343394 0.19929 0  0.350682 0.185683 0  0.368101 0.189748 0  0.344016 0.221511 0  0.391108 0.213329 0  0.376279 0.204783 0  0.398843 0.182768 0  0.375804 0.222746 0  0.390665 0.196958 0  0.394004 0.23518 0  0.359883 0.222828 0  0.419908 0.204359 0  0.404243 0.204783 0  0.412615 0.224526 0  0.20625 0.41 0  0.165625 0.325257 0  0.0347982 0.244954 0  0.379558 0.247154 0  0.34165 0.147603 0  0.372264 0.136992 0  0.388988 0.121989 0  0.373437 0.108554 0  0.351562 0.31948 0  0.391367 0.16527 0  0.399572 0.223324 0  0.452011 0.227371 0  0.40877 0.239392 0  0.431491 0.237337 0  0.421224 0.250459 0  0.449619 0.262098 0  0.418865 0.276779 0  0.437063 0.252274 0  0.415673 0.263227 0  0.430988 0.266772 0  0.402767 0.273419 0  0.452967 0.244883 0  0.428125 0.3 0  0.408502 0.286186 0  0.384375 0.3 0  0.392267 0.285807 0  0.465927 0.219339 0  0.43489 0.283846 0  0.376424 0.286289 0  0.625 0.3 0  0.473533 0.205186 0  0.461713 0.255517 0  0.5375 0.3 0  0.465725 0.235405 0  0.44631 0.201425 0  0.471875 0.3 0  0.494307 0.227729 0  0.459448 0.206736 0  0.462294 0.180792 0  0.478933 0.227536 0  0.486793 0.21381 0  0.486322 0.251373 0  0.50065 0.215318 0  0.54005 0.175389 0  0.474633 0.189893 0  0.512916 0.208697 0  0.49531 0.199967 0  0.475889 0.175275 0  0.625 0.1 0  0.459311 0.153933 0  0.513645 0.242704 0  0.392892 0.248539 0  0.374815 0.271913 0  0.365974 0.14871 0  0.395312 0.109184 0  0.417061 0.123981 0  0.483196 0.277003 0  0.381967 0.179632 0  0.429898 0.219374 0  0.433473 0.206165 0  0.43149 0.181038 0  0.444208 0.215487 0  0.472985 0.247309 0  0.49375 0.3 0  0.475579 0.262714 0  0.49916 0.274293 0  0.501175 0.184809 0  0.514164 0.225681 0  0.543648 0.214977 0  0.5341630000000001 0.23481 0  0.527396 0.216171 0  0.5375 0.1 0  0.534548 0.202315 0  0.561545 0.192513 0  0.5494289999999999 0.201221 0  0.570923 0.218346 0  0.412582 0.149833 0  0.489327 0.264745 0  0.502439 0.254775 0  0.462391 0.271166 0  0.496775 0.241732 0  0.5294410000000001 0.268606 0  0.482812 0.291099 0  0.46879 0.285038 0  0.452663 0.284065 0  0.51789 0.257882 0  0.53408 0.252026 0  0.560142 0.243543 0  0.545708 0.243474 0  0.547532 0.229019 0  0.55282 0.265323 0  0.398971 0.153424 0  0.400349 0.135684 0  0.410135 0.168145 0  0.428823 0.161323 0  0.415266 0.183779 0  0.329687 0.0810483 0  0.395312 0.0612217 0  0.373437 0.318952 0  0.439062 0.324017 0  0.561816 0.229354 0  0.585029 0.239287 0  0.431827 0.139854 0  0.446796 0.168929 0  0.351562 0.07598340000000001 0  0.395313 0.318944 0  0.54337 0.150762 0  0.460937 0.31948 0  0.418412 0.137529 0  0.428125 0.1 0  0.442783 0.152332 0  0.450742 0.134294 0  0.373437 0.0805201 0  0.384383 0.342558 0  0.482812 0.318952 0  0.429239 0.127457 0  0.444274 0.117405 0  0.426548 0.113815 0  0.49375 0.1 0  0.488954 0.113984 0  0.457973 0.121842 0  0.471621 0.137346 0  0.515625 0.325257 0  0.48125 0.41 0  0.417187 0.07598340000000001 0  0.496363 0.126778 0  0.479043 0.155715 0  0.439062 0.0805201 0  0.481795 0.126919 0  0.471875 0.1 0  0.489227 0.142159 0  0.515625 0.1 0  0.520062 0.147117 0  0.501244 0.161791 0  0.505431 0.112984 0  0.505344 0.14029 0  0.526563 0.119081 0  0.5181750000000001 0.131908 0  0.539868 0.136937 0  0.460937 0.108383 0  0.474242 0.114415 0  0.460937 0.0810483 0  0.487841 0.167168 0  0.526563 0.0612217 0  0.526563 0.106406 0  0.537619 0.112743 0  0.58125 0.1 0  0.559375 0.1 0  0.482812 0.08105569999999999 0  0.471883 0.0587655 0  0.570312 0.129396 0  0.548437 0.07598340000000001 0  0.504687 0.08105569999999999 0  0.49375 0.0470127 0  0.570312 0.112663 0  0.592798 0.12103 0  0.553986 0.12103 0  0.570312 0.0805201 0  0.48125 0 0  0.114787 0.2 0  0.160769 0.284765 0  0.175816 0.288361 0  0.162602 0.116048 0  0.154687 0.07598340000000001 0  0.176562 0.0805201 0  0.0598995 0.147547 0  0.307812 0.109924 0  0.291279 0.117157 0  0.278491 0.112989 0  0.285937 0.07598340000000001 0  0.307812 0.0805201 0  0.296928 0.196743 0  0.318141 0.218507 0  0.330208 0.227509 0  0.301397 0.225668 0  0.302706 0.241401 0  0.292574 0.21424 0  0.282762 0.230935 0  0.284351 0.244775 0  0.269553 0.23261 0  0.278572 0.217242 0  0.226924 0.342606 0  0.446928 0.185396 0  0.515625 0.3 0  0.504687 0.288879 0  0.515256 0.276534 0  0.529479 0.285328 0  0.58125 0.3 0  0.541969 0.272936 0  0.559375 0.3 0  0.556796 0.282529 0  0.543473 0.287206 0  0.581429 0.267774 0  0.566728 0.271171 0  0.570869 0.255585 0  0.577404 0.283865 0  0.603125 0.3 0  0.597531 0.28035 0  0.570312 0.338778 0  0.592188 0.292492 0  0.603513 0.256094 0  0.614063 0.286265 0  0.610329 0.27064 0  0.632708 0.251285 0  0.657223 0.261594 0  0.618789 0.257807 0  0.614188 0.22987 0  0.630935 0.265614 
[...]
<PointData  Scalars="p"> 
	<DataArray  type="Float64"  Name="p"  format="ascii">
0.00047033419323259576 0.00048479391663624615 -1.3940758551351955e-07 1.0839680652851657e-06 0.0005210122687225927 0.0005513561942181672 0.00010310735621517749 0.0001443149282317701 -0.00028974435788014683 -0.0002811267359442856 -0.0002772004243749777 -0.0002765692538591073 -0.00030190983028298413 -0.0003568147344638841 -0.00045361558143938767 -0.0006000210551422526 -0.0007189685834637549 -0.0008995037061283615 -0.0006750626144406597 -0.00029337849149209985 0.0002456487939704702 0.0009153140999090539 0.001450584984789315 0.001787209553869711 0.0017814007741850549 0.0014321612400381867 0.0008944842178188669 0.00021534326346279742 -0.000446852640323556 -0.000755042171454529 -0.0009730657637412676 -0.0008655447214858786 -0.000751542609607758 -0.0006198330527412128 -0.000518376211439723 -0.00046046115815434813 -0.0004129693662833566 -0.0003643834800950149 -0.00031842574569715057 9.273812499843767e-05 0.00017758050364842016 0.0011711974215665056 0.00018063152296843743 -3.384171512815362e-05 0.00016014589214005754 -0.00016316949295874182 -9.904366272879244e-05 7.95937025347774e-05 0.00013583693487082273 0.0007746741780603156 0.0002015694387912009 0.00011601144576278882 0.00013981104155439016 0.0008290767509830749 9.794251940265115e-06 0.000850683792607962 0.00010116215997277986 0.0015935546507736997 -0.00028182741976747567 -0.00044418334070316735 -0.00036039975252493404 -0.0002739022390604278 0.0015406940916252204 0.00031810623184066496 0.0007389409137623726 -0.000375481309287798 -0.0005261659554956818 0.001558251793760219 0.0007653281653995105 -0.000281067507287658 -0.00036206319001220864 -5.088986764313019e-05 -0.0002714151612008398 -0.0001520404222651395 -0.00042622662834499516 -0.00031472505203024596 -0.0006618960463512798 -0.00021972571483017676 0.00023874504814380777 -0.0005660349482731829 -0.0005601620928285244 -0.00026867096317096387 -0.0007000198404915184 -0.00039443590253608905 -0.00028951964725762506 -0.00019878947308154317 0.0012076829410315165 -0.0004538944527065327 -0.00023158652574323062 -0.0006073681856898473 -0.00042227660228146463 -0.0003035810917494914 0.0003961607455711281 -2.1719168908711873e-05 -0.0002454084993204525 -8.201612766398872e-05 -0.0003606731674944749 -0.00033958826969553336 -0.0004607501532152014 0.0011856248771099807 0.0010436831559624121 0.0010322580408343323 0.0005837445935429729 0.001075023150602261 0.0010736261089365443 -0.0002140367771845041 -0.00023828922227164435 -0.00042877432632499224 -0.0003314693799810639 -0.00016632711695741532 -0.00029300126156285556 -0.0002576513054825675 -0.0004528172482464217 -0.0002983581873151826 -6.483369006576201e-05 -0.00038756350350929 -0.00015015596389553507 0.0013737817114822242 0.000886616869013274 0.0003007633199050695 0.0013778742812583314 0.0009158367172270789 -0.00020745613170428334 -0.0003639267645438195 -0.0003902198029641063 -8.980329697443782e-05 0.00034105792810982307 -0.00016646684750876864 -0.00021951328848535882 -0.00041672805692756287 -0.00034333105200686046 0.00024881453335874197 0.0005587526795357321 -0.0002287089412142214 -0.00038441988032330654 4.703774043988067e-05 0.00020583656185706558 0.00010485527444364965 0.0004949118212549155 0.0003388705917987278 0.00043018002407488976 0.0006544126557194551 -0.00017414348510435158 -0.0002842369550818277 0.000636777097154447 0.0005963331939599384 0.0007224915810849667 0.0004583683627935076 0.0005471294634760188 0.0004912429383260756 -0.00010508938631060418 -0.0003062790994512816 -0.0001543405924916239 -0.0002110096410120545 0.00038121870615916257 0.00021214791552398864 -0.00023410571601120903 0.0011033417068341302 0.0009337014772602885 0.0009000209828916667 0.0008424138205289565 0.0007017147287211772 0.0005586381264271575 0.0011206586882054768 0.000971516588321088 0.0005591916138890443 0.0009318027447949716 0.0008669149564632187 0.001023457182783417 -0.0003548162894614778 -0.0003826100532436355 0.00010688667809143983 0.00036411533999631033 0.0006676703954995997 -0.00017459244079682997 -0.00015950219338783448 -0.00024290704252589117 -0.0001397160187608217 -0.00024197629761948808 -0.00018327503277646052 -0.00033625834789379345 -0.00027241293565699056 -0.0003198096713814821 -0.00026536706990045855 -0.0003094118966428672 -0.00044353902954081647 -0.00037405492727263294 -0.0004169418641881382 -0.00039096804605269156 -0.00021546911728919285 -0.0002494741648265229 -0.0002877677993236717 -0.00041384578928512877 7.209198292311834e-05 0.0007571527988822511 0.00037519776566623806 2.4397030721681472e-05 0.00012882469301503797 0.000713554378297816 0.0009814480605241686 -0.00040245104089331647 -0.0003899666041485476 -9.397065868649316e-05 -0.000278693576077393 -0.0001580298696328894 -0.0003527828274953197 -0.00029752654404614147 -0.00032537232310675727 -0.0003494486615596749 0.0007395329460469569 0.0006921247873999488 0.0005002638515424142 0.0008215194483184802 0.0006125625024472758 0.0005910154909270077 0.0005309241773010919 0.0005024460271411861 0.0006405447986905964 0.0004165263915041255 0.0005913269182220348 0.0008784802885290073 1.2728302383522273e-05 -0.00019928395686902875 -0.0003206211545376238 -0.0004737184558624038 4.371167472810692e-06 0.0004475081126008125 3.873005744329089e-06 -0.0001807081810147891 -3.726092438654727e-05 -0.00016810962599422624 -9.821582644676269e-05 -4.818776276846541e-05 -0.00018510148371233678 -0.0003376591792958221 0.000475465861508956 -0.0003879001355933851 -0.0005110697459637922 1.410627794213715e-05 -5.6299715686946756e-05 -0.00024800200234836596 -2.989269075751349e-05 -2.3785022570343977e-05 -0.0002604380305636691 -3.3088652526775933e-06 0.0001577594244197733 -0.00024519539065603934 -0.0003276070281590443 -0.00030546590528279387 -0.0003112145892241341 7.307071193206812e-05 0.00042182495430232613 0.0005359500385902415 0.0005723657213336553 0.00047235745057504485 -0.00046968671309044523 -0.0005407654750478034 -0.0004909310796945032 0.00010751566693837053 0.0001240899011489807 -4.420569836480989e-05 5.368015041184018e-05 -0.0004006291424496397 0.00017468086297107587 0.0007135709596438616 -0.00015611861895553297 -0.00011934800159757397 0.0001121915990446015 -3.267903209965917e-05 0.00011167556886158942 -0.00034428661395162166 -0.0002812987780670324 -0.0002921588072102127 -0.0004170400495770914 -0.0005008871990171495 -0.00042674956907969534 -0.00016208989108191233 -0.0005445641531626155 -0.00034859653553129114 -0.0005862158089067528 -0.0004885304709377003 -0.00034203108131588016 -0.00041000900366397757 -0.0005007992097247403 0.00028892595443700327 0.0002996830216113441 0.0007373222858467924 -0.0005768573415804478 -0.00017205275611508185 6.672640704399088e-05 0.00015675684779826464 8.033975557958736e-05 -9.80057790588049e-05 1.1120994093892319e-05 -0.0005484479739753598 -0.00016848838880034522 -0.0005257156633203903 -0.0003592070925533646 -0.0003936341929523517 -0.00011524596660208753 -0.00024891767455521304 -0.00025077991337448376 -0.0003650938006418911 -0.00023313717552438728 -0.00035588687758519096 -0.00012904595761324344 -9.403816080417532e-05 -0.0002392410407375351 -0.00021163335346176796 -0.00029847534343522815 -6.477629152927243e-05 -0.0001262977253473083 -0.0003229640211855291 0.0002681403041000246 -1.3408301324635044e-05 -3.6239890277847614e-05 0.00018158541484098587 -4.82418789231935e-05 -0.00015971943753885615 3.498392959182882e-05 9.585882748506475e-05 -0.00010048305861465086 4.5109154890081593e-05 2.9329398367194206e-05 4.159862778028089e-05 0.00010113449562795382 7.599610043436732e-05 -0.0001116430557496982 2.9097034633418654e-05 6.253735574790921e-05 4.495492548969414e-05 8.888369017068386e-05 4.526306756786361e-05 0.00019284758851861303 0.0001809841383705186 -0.0005566723104526701 -0.000439651324551075 -1.5543639903764868e-05 0.0001533128100683312 0.00021797732245905165 8.657535788138516e-05 -0.00016437781539170476 -0.0003632924659910611 -0.0002714012895689811 -4.6752196221234244e-05 -0.00022727042939352826 2.4339748842794894e-05 9.015940426371051e-05 5.209887051853563e-05 0.0001401373801076149 4.120634846666822e-05 0.00013553542811859255 3.660625909614813e-05 0.00016855450015075432 7.39906650592263e-05 0.00011432752130820135 -5.01621318890586e-06 -0.00010302568873851506 -5.3848507257461936e-05 1.364887202631855e-05 0.0001918764803418194 0.00011576970595628706 0.00016516271389642088 -1.0817191872043718e-05 0.00013623105454432192 0.00022171606016815762 7.076939030612364e-05 2.451419699639365e-05 -4.450406839215387e-05 0.00020885474282591234 0.00022015463956600237 0.00017449603874414502 0.00019257082990544296 0.00010962018777693908 0.0002463447214993793 0.0001290640879091826 0.0001966971393031216 4.886223438922983e-05 0.00015862705339019566 -0.00012961212323637364 -1.678387448581605e-05 0.00011752590503853429 -0.00011335877247819191 -2.465453552984403e-05 8.650620143813138e-05 0.00011801674730027762 0.00024163064743047252 0.0001226069026377687 3.56938240094883e-05 -9.144518406878158e-05 -9.576100089281839e-05 5.470707805996619e-06 0.0002260892190828596 0.00018562766869380704 0.00020966002862159866 0.00021467485207427514 7.564902007098808e-05 -2.2500257532480162e-05 4.079286203366345e-05 0.00022921624657751356 0.00020133083937958596 0.0002066223576335412 0.0001398038824505206 0.0001182023741429715 0.00018176227322896148 0.0001565060856004995 9.275276646613216e-05 1.375769793838313e-05 0.0001509744045006275 7.428526561384616e-05 0.00012582756139977412 0.0001756928211280582 0.00011568678907904192 0.00016562781426287504 8.754141346800766e-05 0.00011848214625712713 -3.734838104529803e-05 3.07358440760744e-05 8.655073038142104e-05 2.1796427469611608e-05 4.104009946373918e-05 4.783735078451158e-06 -4.5944971679405034e-05 0.0001710355199539164 0.0001452930328839811 0.00018212819306167083 8.032483691187974e-05 0.00018779877023269566 9.02417504243338e-05 5.8720746799091256e-05 7.880183661724803e-05 8.571054636953741e-05 0.00018103099498103798 0.00019007697972297925 2.972795949272264e-06 0.00014943309835266494 0.00017447458051750452 0.0001971767080679867 5.47646640298918e-05 4.4245461981589764e-05 2.8142577043927906e-05 0.00010889315792661043 0.00017730017174469743 0.0013409203255826771 0.00025326043778646176 7.590715109364938e-05 0.00015109022079232975 0.000305684962212125 0.00019656510920896885 0.0007427391789249444 -0.0001826684123956323 -0.0002677703948183312 -0.00025645479915858206 -3.847804435284391e-05 -4.813941680899109e-05 -0.00032005421808082744 -0.0003263581856633741 -0.0003668832661084418 -0.0002879817035737919 -0.00027262423766842125 -0.0002917853844289587 -0.0002604931257207544 -0.0002388550770101561 -0.00025576339773483015 -0.00027954065071575076 0.00017681367319837945 -4.052019163711385e-05 0.00013859422394317026 0.00013423926466665852 0.00018285216710208857 0.00019575777032494418 0.00024142567270634996 0.00023660658858982628 0.0002154381210855957 0.00023801583039534385 0.00021622123952225972 0.0002385313698592161 0.0002447415239473592 0.00021311347379553578 0.00025371307528509297 0.00025682365057278785 0.0002512696774745667 0.00017959389093978552 0.0002513458502019052 0.00019261070190721032 0.00026086723969654605 0.00023547571761943666 0.00019253952942170494 0.00021734836555347418 0.00020231112280559043 0.00011306440559761154 0.0002252698179195034 0.00016081989318499128 0.00027494653104683355 0.0001392027703808188 0.00023989588753381454 0.00026005986926536426 0.00024694268509382953 0.0002776028248826787 0.00025538491336885455 0.00015437529266873142 0.00023276200239417074 0.000227491067495851 0.00018730147167990926 0.00027288205857014435 0.00017954886565331633 0.0003016059318895241 0.0002614402475661017 0.0002171727000102368 0.0002669921021427081 0.00015308460152079948 0.0002586474920193482 0.00021698130261380003 0.00017168568324508405 0.0001829594566130064 8.91841703680039e-05 0.00019071883257325503 0.00016450054360851518 0.0001310343884492644 0.00012565032082373484 -8.160815832547935e-05 0.00013838221690761103 0.00012990460049019508 0.00011164789994698119 -4.191098614538676e-06 0.00015450431913838827 7.980977354008682e-05 0.00019043030025069226 0.00018090769335768074 0.00021268718127224475 5.568467439535811e-05 9.966988007585026e-05 0.00013424322599094464 0.00015894251646260307 0.0001385444129867797 4.841963742891459e-05 1.3603719163120047e-05 6.13098494205018e-05 5.630452723550079e-06 8.100331090646547e-05 6.969047058482557e-05 -6.527961888582545e-05 -3.58222396463539e-05 0.00013482935135760536 0.00012050007682149601 9.67950841370965e-05 8.781378129515525e-05 6.789770796779733e-05 8.136184673005908e-05 6.593594925673265e-05 8.288343774930981e-05 0.000218968566435054 0.00023925801588467628 0.00027929747609658844 0.0003209948268887066 0.0002493168946413369 2.3694109449854247e-05 2.7908538927515307e-05 -7.687663823541992e-05 -5.605690825876748e-05 0.00013796132628886477 0.00029646953094932807 0.00013666291734287995 0.0002972994183757967 -6.405472571405472e-05 -0.00013697354922899015 -4.621981137205091e-05 -0.00010318236937657841 0.00018473560358935225 0.0003024270304770495 0.0002676327315905702 -8.668860094729317e-05 -0.00014255975229784856 -0.00011240086121810433 5.353245029651105e-05 -7.693678519377572e-05 1.2847132040140739e-05 -9.82308616530072e-06 5.9316301704599196e-05 1.3219681478848787e-05 -9.984344005872637e-05 -4.085012563272271e-05 3.561629710874211e-05 2.583295638122978e-05 7.345145826465098e-05 9.172712915894709e-05 1.493049697141514e-05 -0.00015622220887666352 0.00010251431303220109 -5.505983905122655e-05 9.641216963887041e-05 0.0001126253255390131 7.56179504188156e-05 0.00010648105309601929 0.00010994561285679166 0.00010215369289071245 1.5212865782887529e-05 6.426726270609666e-05 9.773180637744522e-05 9.417046541856023e-05 8.800758691234446e-05 9.952866728118412e-05 4.9296693348676274e-05 0.0001006595877644178 7.73709009018931e-05 0.00010958609204883929 9.984207925593249e-05 9.421037580550613e-05 0.00010092419235938447 0.00010601071608223768 7.106230128926119e-05 8.448684113823991e-05 9.278015810609881e-05 8.875793463817899e-05 8.430123196643596e-05 5.64688820477797e-06 4.581383661946041e-05 4.27230721865972e-05 3.5807037165370504e-05 -4.1624979644104403e-05 4.6013662203019444e-05 -1.2002709869103293e-05 -9.130326396822074e-05 1.1945295917872786e-05 4.9711814769164584e-05 6.667766308824283e-05 6.353355044269081e-06 5.587877913742439e-05 6.524422228147921e-05 3.6213450488905335e-05 5.592704121835449e-05 4.678403098194082e-05 -5.662816057465894e-05 7.009250952606772e-05 8.119957055233282e-05 9.467927141378953e-05 6.123601194243902e-05 9.425283416490586e-05 3.488014608483545e-05 5.900007596129179e-05 7.14465715966854e-05 4.9017395632883607e-05 -0.0001063520694387132 -4.638889604882778e-05 -0.00011344871714872539 -0.0001323472079123701 6.448987518324499e-05 6.358756068146401e-05 8.188263304741486e-05 5.746351897115505e-05 9.92994461254924e-05 4.7585231246118966e-05 4.4378169459749145e-05 7.713629076137695e-05 -0.00011756425517249007 3.9623048124976795e-06 0.00010354783398132995 5.7083695319355175e-05 6.190628175375727e-05 9.157465687494265e-05 0.00010281991530657124 5.018033822427744e-05 0.00014686152824949962 0.00010237626062614722 9.483949472825616e-05 0.0001187490802766057 3.1307951108206404e-05 9.532763059472541e-05 7.32729242971146e-05 0.00013446511457619142 1.1645042189616251e-05 9.651523851589183e-05 0.00014786543534688783 0.0001518150740498566 9.311624685951993e-05 6.016066776655062e-05 -5.7637976602253856e-05 -7.030166761584472e-05 -2.1222434017090694e-05 -4.3137355975965106e-05 -6.488993959022611e-06 -0.00010718326989838712 -0.00011064336322132334 -0.00012198019785985882 -0.00014643669268650704 -6.460485311053708e-05 5.79188243033966e-05 5.8018875037277764e-05 5.2087860162496695e-05 4.488206576547841e-05 2.9843696462597804e-05 -9.600596138310626e-07 -2.595850780935016e-05 -2.7263284649114853e-05 -9.067599454483891e-05 -6.266338461842914e-05 -7.41654594268269e-05 -0.00010842144126509522 1.3365765443318454e-06 0.00017162993599764543 3.5753518245907026e-05 0.0002726045976533905 5.3573855394431865e-05 0.00011700825039383113 0.0001336108731283422 3.6155897579531176e-05 0.0001267047096673728 -3.245235561017702e-06 0.00026094467735282735 0.00021504373266310848 2.6612880599890928e-05 0.0002976736628772695 6.486831165517613e-05 0.0001044824292836909 0.00011322604562615998 0.00012761005912442756 0.00010413289762831582 0.00011598005503675522 -2.8017000075401697e-05 -3.590306665475598e-05 -5.856002290648643e-05 -2.8817669643405607e-06 0.0001378047827163601 0.00011546609605112571 0.00020421006084034478 0.0001891809149901495 0.000215308122674922 6.17841702889744e-05 5.2596075523345806e-05 0.0001993708045110434 0.00025737083178261304 0.0005888244420985996 0.000508695285480418 9.427914234669354e-05 0.00010119615887706779 0.00011181399239515803 0.00013653879811780366 7.631869675589094e-05 3.239792774623097e-05 9.464706756621835e-06 6.043500655443886e-05 6.293788942830383e-05 0.00018414832712505553 0.00018019848897745365 0.00030783322365063624 0.0004562696421478836 0.0004739017253385908 0.00048755842835453513 9.827786985658552e-05 0.00024877579057648125 0.00042864776737113234 0.0004730070248140639 8.972131507454125e-05 0.0006967098773921124 0.00018028967134870868 1.743693237082668e-05 0.0003044977800388782 6.522560259668807e-05 0.00037306329866352 0.0005287780603346447 0.00010904152003847916 0.0002685766977709231 1.9235206331221814e-05 0.00043289012029434893 0.00030036422204137716 0.0006284746964566291 0.00015022277398121873 0.00014317299356602338 9.665663667559642e-05 0.0004841350117668345 4.9665181212288e-05 3.841149657390154e-05 0.00016931384555797776 0.0001323096444728042 0.0001096387602280198 9.87376076228058e-05 0.0002004927934956324 0.00024057052956296649 0.00023531798637902953 0.00020091425702350812 9.743174717273087e-05 0.00016474730122081012 0.000476656804147158 2.6643612297932912e-05 0.00028866388820348085 0.00045332579132029816 0.000598978121074988 0.0002010446608140775 0.0002200250627588681 1.2016063900406398e-05 6.731202285257165e-05 0.0007884004878544194 0.0004803581027062635 0.00024912935989331036 0.0006867137460170151 0.00020059034344193982 0.00013123721928080378 0.0005070879657676868 0.00024028556198861834 0.00022744838261957306 0.00019969526996150132 0.0004662653921507555 0.0001414329667324219 0.00047148652195986017 0.0004659751776627672 0.00022604626218529207 0.00014484914379799059 4.865975041174048e-05 0.00019837548509565788 0.00019742913376147284 8.132381222427558e-05 0.00017361822477356478 5.335733574507889e-05 0.0001515981964894602 0.00012358772650922147 -5.0931135787228254e-05 0.0001693788994530282 8.926218433920059e-05 0.00010808265224811926 3.2479047873228214e-05 0.00013267602709477011 0.0001734248358857344 0.00014889639455687432 0.00015335581775076864 0.00011798537297712533 0.00012376325308550913 0.00019590223571332592 8.27257862780363e-05 9.31635113903065e-05 9.853961621777207e-05 8.506337455315196e-05 9.806770310766367e-05 6.845330990945817e-05 9.85421157076523e-05 7.753706690290719e-05 9.547279105040103e-05 9.064152118014435e-05 0.00015815822775035014 0.00018153950259369635 0.0003527539709288034 0.00042685437909641344 0.0003876240021936647 0.00045140863411060315 6.422704575878117e-05 3.7168563240129294e-05 0.00028264786275527344 0.0004902699313846014 0.0003052360898589744 0.00017788215893432344 8.958205220160027e-05 0.00045938276191648594 1.2416264067025981e-05 0.0007913942016225814 0.0007552861650435666 0.00022255080888568135 0.0002386336670760525 0.00020003822737499477 0.00022114962367166636 8.050065159164826e-05 7.467569832869194e-05 8.107105264195633e-05 -7.34470578828842e-05 0.0001269770344629404 -9.730286815823047e-05 1.200882850101237e-05 -0.00013886893818337802 -7.059563204092612e-05 2.6574354913858e-05 0.000102893078526215 0.00014235727449576088 8.355310830359101e-05 4.5146817444132266e-05 0.00019563097845811162 5.3643549460828014e-05 6.664231714598719e-06 0.00020436145930695701 8.091045722641185e-05 0.0001857932849546028 0.0001