<?xml version="1.0"?>
<VTKFile type="UnstructuredGrid"  version="0.1"  >
<UnstructuredGrid>
<Piece  NumberOfPoints="1289" NumberOfCells="2413">
<Points>
<DataArray  type="Float64"  NumberOfComponents="3"  format="ascii">0 0 0  0 0.41 0  2.2 0.41 0  2.2 0 0  0.1 0.1 0  0.1 0.3 0  0.8 0.3 0  0.8 0.1 0  0.25 0.2 0  0.248976 0.210065 0  0.245948 0.219718 0  0.241038 0.228563 0  0.234448 0.23624 0  0.226448 0.242432 0  0.217365 0.246888 0  0.207571 0.249423 0  0.197468 0.249936 0  0.187467 0.248404 0  0.17798 0.24489 0  0.169395 0.239539 0  0.162062 0.232569 0  0.156283 0.224265 0  0.152293 0.214968 0  0.150257 0.205058 0  0.150257 0.194942 0  0.152293 0.185032 0  0.156283 0.175735 0  0.162062 0.167431 0  0.169395 0.160461 0  0.17798 0.15511 0  0.187467 0.151596 0  0.197468 0.150064 0  0.207571 0.150577 0  0.217365 0.153112 0  0.226448 0.157568 0  0.234448 0.16376 0  0.241038 0.171437 0  0.245948 0.180282 0  0.248976 0.189935 0  1.1 0 0  1.1 0.41 0  0.1 0.2 0  0.45 0.1 0  0.45 0.3 0  0.55 0 0  0.275 0.1 0  0.275 0.3 0  0.275 0 0  0.55 0.41 0  0 0.205 0  0.825 0 0  0.825 0.41 0  0.275 0.41 0  0.1 0.15 0  0.1875 0.1 0  0.1 0.25 0  0.1875 0.3 0  0.132322 0.2 0  0.241426 0.253518 0  0.241426 0.146482 0  0.264574 0.17974 0  0.264574 0.22026 0  0.138434 0.187348 0  0.153372 0.150948 0  0.148413 0.164094 0  0.176495 0.136535 0  0.22768 0.143571 0  0.138434 0.212652 0  0.148413 0.235906 0  0.176495 0.263465 0  0.22768 0.256429 0  0.23125 0.3 0  0.24769 0.24094 0  0.23125 0.1 0  0.24769 0.15906 0  0.26253 0.193641 0  0.190482 0.137872 0  0.166753 0.146661 0  0.157737 0.244461 0  0.190482 0.262128 0  0.203107 0.261264 0  0.253635 0.22977 0  0.203107 0.138736 0  0.253635 0.17023 0  0.261028 0.206206 0  0.167707 0.251809 0  0.143629 0.224191 0  0.215302 0.2591 0  0.270465 0.245894 0  0.215302 0.1409 0  0.270465 0.154106 0  0.284052 0.202587 0  0.14375 0.3 0  0.209375 0.3 0  0.225966 0.278501 0  0.209375 0.1 0  0.225966 0.121499 0  0.211613 0.273759 0  0.211613 0.126241 0  0.143629 0.175809 0  0.1 0.175 0  0.133484 0.164832 0  0.144491 0.249539 0  0.1 0.225 0  0.133484 0.235168 0  0.3625 0.3 0  0.25691 0.253381 0  0.25691 0.146619 0  0.277205 0.188698 0  0.184724 0.275712 0  0.237372 0.268285 0  0.184724 0.124288 0  0.237372 0.131715 0  0.197578 0.273149 0  0.193656 0.286994 0  0.197578 0.126851 0  0.193656 0.113006 0  0.122953 0.187671 0  0.118362 0.153758 0  0.155372 0.258107 0  0.122953 0.212329 0  0.118362 0.246242 0  0.276394 0.27264 0  0.276394 0.12736 0  0.280965 0.170013 0  0.253125 0.3 0  0.14375 0.1 0  0.253125 0.1 0  0.269489 0.26014 0  0.269489 0.13986 0  0.303639 0.184297 0  0.165625 0.3 0  0.134742 0.273113 0  0.257831 0.274737 0  0.255279 0.128499 0  0.3625 0.1 0  0.165625 0.1 0  0.162031 0.132368 0  0.134955 0.126405 0  0.149334 0.125568 0  0.142936 0.139597 0  0.12695 0.140259 0  0.242514 0.285501 0  0.242514 0.114499 0  0.1 0.125 0  0.117483 0.12555 0  0.11154 0.139776 0  0.121875 0.1 0  0.109143 0.1125 0  0.126805 0.114 0  0.220313 0.29129 0  0.351562 0.287369 0  0.207222 0.2866 0  0.220312 0.10871 0  0.1375 0 0  0.20625 0 0  0.207222 0.1134 0  0.11722 0.17118 0  0.1 0.1625 0  0.0778409 0.16875 0  0.0862762 0.15625 0  0 0.15375 0  0 0.1025 0  0.11722 0.22882 0  0.1 0.2375 0  0 0.3075 0  0.0862762 0.23125 0  0.0598995 0.222547 0  0.0860223 0.2125 0  0.289584 0.181469 0  0.300267 0.16446 0  0.163832 0.269071 0  0.149597 0.273325 0  0.1 0.275 0  0.268498 0.285953 0  0.31875 0.3 0  0.294154 0.254672 0  0.296875 0.3 0  0.293558 0.271845 0  0.285095 0.286799 0  0.324298 0.264316 0  0.307866 0.263745 0  0.317093 0.234901 0  0.315485 0.281219 0  0.316547 0.250625 0  0.344693 0.243731 0  0.331592 0.251147 0  0.35129 0.270663 0  0.338689 0.263683 0  0.340625 0.3 0  0.249849 0.264383 0  0.265097 0.11422 0  0.284688 0.156136 0  0.242188 0.324017 0  0.0856613 0.2625 0  0.132812 0.0612217 0  0.264062 0.0612217 0  0.198437 0.07598340000000001 0  0.0860223 0.1375 0  0.0794526 0.191089 0  0.285228 0.140397 0  0.298655 0.148737 0  0.31875 0.1 0  0.327335 0.15374 0  0.296875 0.1 0  0.312289 0.155283 0  0.313348 0.135607 0  0.321802 0.173916 0  0.298433 0.134116 0  0.112124 0.2625 0  0.127526 0.259083 0  0.121875 0.3 0  0.0682687 0.241503 0  0.1 0.2875 0  0.117762 0.28125 0  0.107813 0.3 0  0.103906 0.313849 0  0.0778409 0.28125 0  0.1375 0.41 0  0.0862762 0.29375 0  0.08886860000000001 0.24375 0  0.307812 0.338778 0  0.307812 0.292227 0  0.33216 0.279164 0  0.387888 0.266414 0  0.264063 0.31948 0  0.110937 0.07598340000000001 0  0.242188 0.07598340000000001 0  0.319914 0.11839 0  0.340625 0.1 0  0.334448 0.133793 0  0.329687 0.108539 0  0.346259 0.118491 0  0.360334 0.173636 0  0.327539 0.205033 0  0.132812 0.288712 0  0.362436 0.278836 0  0.368105 0.259418 0  0.4125 0.41 0  0.329687 0.324017 0  0.329687 0.292306 0  0.285938 0.318952 0  0.417187 0.338778 0  0.324481 0.14148 0  0.351562 0.106771 0  0.40625 0.1 0  0.341028 0.168342 0  0.319221 0.190479 0  0.335292 0.184501 0  0.305563 0.20794 0  0.220313 0.31948 0  0.132812 0.332772 0  0.0865876 0.311259 0  0.0598995 0.302453 0  0.0906541 0.343255 0  0.353543 0.255837 0  0.36574 0.237633 0  0.405007 0.254279 0  0.275795 0.352123 0  0.4125 0 0  0.35493 0.137394 0  0.366563 0.120618 0  0.35917 0.205246 0  0.198438 0.318952 0  0.0626109 0.263892 0  0.40625 0.3 0  0.354809 0.155936 0  0.386512 0.146872 0  0.373101 0.159939 0  0.384375 0.1 0  0.343394 0.19929 0  0.350682 0.185683 0  0.368101 0.189748 0  0.344016 0.221511 0  0.391108 0.213329 0  0.376279 0.204783 0  0.398843 0.182768 0  0.375804 0.222746 0  0.390665 0.196958 0  0.394004 0.23518 0  0.359883 0.222828 0  0.419908 0.204359 0  0.404243 0.204783 0  0.412615 0.224526 0  0.20625 0.41 0  0.165625 0.325257 0  0.0347982 0.244954 0  0.379558 0.247154 0  0.34165 0.147603 0  0.372264 0.136992 0  0.388988 0.121989 0  0.373437 0.108554 0  0.351562 0.31948 0  0.391367 0.16527 0  0.399572 0.223324 0  0.452011 0.227371 0  0.40877 0.239392 0  0.431491 0.237337 0  0.421224 0.250459 0  0.449619 0.262098 0  0.418865 0.276779 0  0.437063 0.252274 0  0.415673 0.263227 0  0.430988 0.266772 0  0.402767 0.273419 0  0.452967 0.244883 0  0.428125 0.3 0  0.408502 0.286186 0  0.384375 0.3 0  0.392267 0.285807 0  0.465927 0.219339 0  0.43489 0.283846 0  0.376424 0.286289 0  0.625 0.3 0  0.473533 0.205186 0  0.461713 0.255517 0  0.5375 0.3 0  0.465725 0.235405 0  0.44631 0.201425 0  0.471875 0.3 0  0.494307 0.227729 0  0.459448 0.206736 0  0.462294 0.180792 0  0.478933 0.227536 0  0.486793 0.21381 0  0.486322 0.251373 0  0.50065 0.215318 0  0.54005 0.175389 0  0.474633 0.189893 0  0.512916 0.208697 0  0.49531 0.199967 0  0.475889 0.175275 0  0.625 0.1 0  0.459311 0.153933 0  0.513645 0.242704 0  0.392892 0.248539 0  0.374815 0.271913 0  0.365974 0.14871 0  0.395312 0.109184 0  0.417061 0.123981 0  0.483196 0.277003 0  0.381967 0.179632 0  0.429898 0.219374 0  0.433473 0.206165 0  0.43149 0.181038 0  0.444208 0.215487 0  0.472985 0.247309 0  0.49375 0.3 0  0.475579 0.262714 0  0.49916 0.274293 0  0.501175 0.184809 0  0.514164 0.225681 0  0.543648 0.214977 0  0.5341630000000001 0.23481 0  0.527396 0.216171 0  0.5375 0.1 0  0.534548 0.202315 0  0.561545 0.192513 0  0.5494289999999999 0.201221 0  0.570923 0.218346 0  0.412582 0.149833 0  0.489327 0.264745 0  0.502439 0.254775 0  0.462391 0.271166 0  0.496775 0.241732 0  0.5294410000000001 0.268606 0  0.482812 0.291099 0  0.46879 0.285038 0  0.452663 0.284065 0  0.51789 0.257882 0  0.53408 0.252026 0  0.560142 0.243543 0  0.545708 0.243474 0  0.547532 0.229019 0  0.55282 0.265323 0  0.398971 0.153424 0  0.400349 0.135684 0  0.410135 0.168145 0  0.428823 0.161323 0  0.415266 0.183779 0  0.329687 0.0810483 0  0.395312 0.0612217 0  0.373437 0.318952 0  0.439062 0.324017 0  0.561816 0.229354 0  0.585029 0.239287 0  0.431827 0.139854 0  0.446796 0.168929 0  0.351562 0.07598340000000001 0  0.395313 0.318944 0  0.54337 0.150762 0  0.460937 0.31948 0  0.418412 0.137529 0  0.428125 0.1 0  0.442783 0.152332 0  0.450742 0.134294 0  0.373437 0.0805201 0  0.384383 0.342558 0  0.482812 0.318952 0  0.429239 0.127457 0  0.444274 0.117405 0  0.426548 0.113815 0  0.49375 0.1 0  0.488954 0.113984 0  0.457973 0.121842 0  0.471621 0.137346 0  0.515625 0.325257 0  0.48125 0.41 0  0.417187 0.07598340000000001 0  0.496363 0.126778 0  0.479043 0.155715 0  0.439062 0.0805201 0  0.481795 0.126919 0  0.471875 0.1 0  0.489227 0.142159 0  0.515625 0.1 0  0.520062 0.147117 0  0.501244 0.161791 0  0.505431 0.112984 0  0.505344 0.14029 0  0.526563 0.119081 0  0.5181750000000001 0.131908 0  0.539868 0.136937 0  0.460937 0.108383 0  0.474242 0.114415 0  0.460937 0.0810483 0  0.487841 0.167168 0  0.526563 0.0612217 0  0.526563 0.106406 0  0.537619 0.112743 0  0.58125 0.1 0  0.559375 0.1 0  0.482812 0.08105569999999999 0  0.471883 0.0587655 0  0.570312 0.129396 0  0.548437 0.07598340000000001 0  0.504687 0.08105569999999999 0  0.49375 0.0470127 0  0.570312 0.112663 0  0.592798 0.12103 0  0.553986 0.12103 0  0.570312 0.0805201 0  0.48125 0 0  0.114787 0.2 0  0.160769 0.284765 0  0.175816 0.288361 0  0.162602 0.116048 0  0.154687 0.07598340000000001 0  0.176562 0.0805201 0  0.0598995 0.147547 0  0.307812 0.109924 0  0.291279 0.117157 0  0.278491 0.112989 0  0.285937 0.07598340000000001 0  0.307812 0.0805201 0  0.296928 0.196743 0  0.318141 0.218507 0  0.330208 0.227509 0  0.301397 0.225668 0  0.302706 0.241401 0  0.292574 0.21424 0  0.282762 0.230935 0  0.284351 0.244775 0  0.269553 0.23261 0  0.278572 0.217242 0  0.226924 0.342606 0  0.446928 0.185396 0  0.515625 0.3 0  0.504687 0.288879 0  0.515256 0.276534 0  0.529479 0.285328 0  0.58125 0.3 0  0.541969 0.272936 0  0.559375 0.3 0  0.556796 0.282529 0  0.543473 0.287206 0  0.581429 0.267774 0  0.566728 0.271171 0  0.570869 0.255585 0  0.577404 0.283865 0  0.603125 0.3 0  0.597531 0.28035 0  0.570312 0.338778 0  0.592188 0.292492 0  0.603513 0.256094 0  0.614063 0.286265 0  0.610329 0.27064 0  0.632708 0.251285 0  0.657223 0.261594 0  0.618789 0.257807 0  0.614188 0.22987 0  0.630935 0.265614 
[...]
<PointData  Scalars="p"> 
	<DataArray  type="Float64"  Name="p"  format="ascii">
0.00044145299937526364 0.0004807767078567259 -1.1659330021332711e-07 -4.2637843390597767e-07 0.000493191606654388 0.0005481377126980372 0.00023931907941897873 5.988727342572811e-05 -0.00031203449486800247 -0.00028674272039557304 -0.0002814936346399412 -0.0002932916978812907 -0.0003331680386947491 -0.0003865325878275686 -0.00047503966178830375 -0.0006065583257413085 -0.000711417484361688 -0.0008667904632642633 -0.0006279024020069334 -0.00023892518716464605 0.0003029906569610417 0.0009574146250260428 0.0014741105110440324 0.0017827625250705335 0.001750368827724332 0.001374981424680719 0.0008213185023846371 0.00013092266503808903 -0.0005323298925921572 -0.0008192208451014086 -0.0010166461323704704 -0.0008827497097445466 -0.0007533683552058782 -0.0006075592093572329 -0.0005001679610928154 -0.00044218739534179145 -0.00041125007924672777 -0.00038656107547855673 -0.00035281650094993176 0.00014386046378435147 6.958798310399445e-05 0.0011551030290605534 0.0001193249493250103 -0.00010709742647570707 0.00022729346911749983 -0.0002287589586210596 -7.07334817670976e-05 1.9446730127553435e-05 1.2356831121945237e-07 0.0007591239090569228 9.320450914449956e-05 0.00023283593671887066 0.00015236387217739566 0.0007998214274986525 -1.574471284860281e-05 0.0008481371958023096 9.667830794953085e-05 0.0015770065223027511 -0.000319763761308562 -0.00041873416074524885 -0.0003752979888380258 -0.0002882630013586515 0.0015048313303393573 0.00025995375473959856 0.0006769059553566662 -0.00041924730435856323 -0.0005101059269286485 0.001560726752519136 0.0007965069967566559 -0.0002602972087774029 -0.00038921517346099795 -5.6862578660378734e-05 -0.00030857033683442286 -0.00017652666517368226 -0.00040309399936632893 -0.0003394987061469902 -0.000695289623755128 -0.0002811690328901593 0.00027857885215935315 -0.0005483383579102816 -0.0005597555127452062 -0.0002919864256441202 -0.0007119967064013864 -0.0003899504128215625 -0.00030667154663661586 -0.00016126582387355858 0.001230770750200591 -0.00046838275468368543 -0.00026897196606903023 -0.0006031150136012012 -0.0003977568965915227 -0.0003268570817735037 0.0003927809785429152 -2.8799426804068148e-05 -0.00025870068470927626 -0.00010418170577251392 -0.00036748417542061527 -0.00034501480014903583 -0.0004743523236758097 0.001130226620951204 0.0010187892930026685 0.00098929125964621 0.0006023839102883777 0.0010682684267266625 0.0010849699837684754 -3.0997364139930565e-05 -0.0002865455796610263 -0.0003912666464850214 -0.0003627595681403498 -0.0001597564406471917 -0.00031874788442535606 -0.00029004260637943734 -0.0004420922988177237 -0.0002969013474854596 -6.641226069868302e-05 -0.00040901277360273904 -0.00017475975637844796 0.0013464565881810867 0.0008530762762188653 0.00032115845264200037 0.0013724730242489697 0.0009182308440342236 -0.00019913688998037026 -0.0003987294028101808 -0.0004098677450329829 -8.619192961611084e-05 0.00031329592723320374 -0.000201758906411283 -0.00025144668418533025 -0.0004013817437694623 -0.0004188130346068172 0.00024567480059919553 0.0005614214894933783 -0.00024217628695909725 -0.0003754107094702095 -0.00020502352947225473 0.00017859176877419626 6.383314846592636e-05 0.0004615714370862503 0.0003042716773054023 0.000386076181837933 0.000618523527961243 -0.00018361600997185274 -0.00030046352392063534 0.0006075600048573853 0.0005651281185603274 0.0006909395458975011 0.0004300986389444228 0.0005178689295142348 0.0004611358072493913 -0.00011416552192015515 -4.0979001983140244e-05 -0.00015921271298101192 -0.00022898297886396303 0.0003593682867163337 0.00018083598450239685 -0.00025368419174455866 0.0010731265845079524 0.0009060273026984296 0.0008762389528214996 0.0008163439713942882 0.000677372263717414 0.0005295537518930282 0.0011190639972419563 0.0009669664650196495 0.0005556939663673777 0.0009241193708724446 0.0008554343223066246 0.0010104429804596534 -0.0004018888610628361 -0.0004696541603194001 0.0001209047121530405 0.00037142873400063375 0.0006655203826947992 -0.00015777465055679077 -3.632893174523824e-05 -0.00019891291313988747 -6.199364297259716e-05 -0.00016491343320637394 -0.00013024635103221728 -9.573310362096616e-05 -0.00013818274231816843 -0.00018961791673329973 -8.510818097450936e-05 -0.00014104149693184843 -9.607742090103407e-05 -0.00010106085984482513 -5.241002689370805e-05 -6.716640291669687e-05 -3.489570140981582e-05 -0.000286088642632802 -0.0003220847636741536 -0.00043229007889703105 7.139794522623086e-05 0.0007531365006034379 0.00035123783571725144 -2.759351525329237e-05 0.00010387949438609498 0.0006852741339192882 0.0009634130944786794 -0.0004336807735085429 -0.00047837659489592666 -0.000265085677578788 -0.000560726804166383 -0.0002710807760595781 -0.0005220855534317332 -0.000509188523270085 -0.0005046711602804504 -0.0004619596846818415 0.0007398231752602094 0.0006974935963286456 0.0004967494964662482 0.0008142152984927008 0.0006094717156117723 0.0005900943466636006 0.0005277536720102422 0.0004981259374683217 0.0006371861602923463 0.00040652658175558776 0.0005878365524350662 0.000873111112222175 5.475180264764106e-05 -7.399000353634552e-05 -6.68383121515337e-05 -9.689032959105507e-05 1.8026145410384952e-05 0.0004213976608557997 -3.276907184566784e-05 -0.00040866089768626233 -0.00026468123884141904 -0.0005103903591056661 -0.0003293290011393035 -0.00038090802343071175 -0.0005129682234588891 -0.0003283417062745397 0.0004752979686251765 -5.921121737041426e-05 -5.824045452556117e-05 6.85163359623066e-05 2.3958389817939314e-05 -5.65684430412739e-05 7.096933255532489e-06 3.177515993501021e-05 -0.0005355034783272615 -0.0002764564595443981 -4.6306950299733924e-05 -0.0005554371827144856 -0.00041327295726054114 -0.0004683599786153636 -0.00031414084318333497 6.762005938067606e-05 0.0004144191849557422 0.0005318844337640485 0.0005691373474705801 0.00046701269759523683 -6.184509800763764e-05 -9.98291639878293e-05 -0.00015066673191244098 0.00012078853710930295 -1.6851220878007594e-05 -0.0004839872441476509 -0.00031619657559195174 -0.0002991905750322109 0.00016605060990433623 0.0007082830948326809 -7.571679691520501e-05 -0.0005530382325094085 -0.000331136527942721 -0.00047175593803879575 -0.00013541327785185193 -0.0003640878202523373 -0.00046203535846249294 -0.00040009389760365055 -0.00020249859381385221 -0.00019950970300852702 -0.0002722062438926564 -0.0002942118289837173 -0.0001558826283559196 -0.00027895102635543746 -0.0001304612894346593 -0.000171879645795517 -0.0002083205536071045 -0.00022028628955149754 -0.0001847210293165487 0.00028262321994661406 0.0002918570811080432 0.0007286137285453939 -8.337306205893568e-05 -0.0005590329983986579 -0.00038257898519680517 -0.0001927374947007403 -0.00021658448773846772 9.816055493539963e-06 -0.0003467287481058238 -0.00016461947134313465 -0.00032023829647719477 -0.00017180885479211227 -0.000262634077415654 -0.0002203065079236008 -0.0002920799128595857 -0.0001770545290332455 -0.0002796476171030231 -0.00018905505580485546 -0.0002363440167986387 -0.00013869873758578957 -0.0003360525529888313 -9.62663918889851e-05 -0.000125294433413869 -5.171420512761999e-05 -9.55469936139328e-05 -0.0003157250185871467 -0.00019116360472851507 -6.745198530897046e-05 8.893934159895706e-05 -0.00023673555633633238 -0.0003267898865423517 -1.2182025796030242e-05 -0.000353131328216111 -0.00018568585655969052 -9.197332650622204e-05 -0.0003037379238156968 -0.00024610134549533393 -2.125645039330021e-05 -0.0003475365342365942 -0.0002823393367850494 -0.0003074890984945051 -0.00024525873837384957 0.00010693565012592267 -0.00011253641146195853 -0.00016618197497757914 -0.00017597484520641925 4.515601005559781e-05 0.00019244120818874498 0.00017319707526408654 -0.00019194445593152505 -0.00011720036750359779 -6.651241908313278e-05 -0.00048223096395146124 -0.00011839241853537853 -1.8368210914706874e-05 -0.00019051757205887975 -0.00040106205559585403 -0.00022751852997833854 -0.00020688607359060747 -0.00011013503322276662 -0.0002588376669531157 -0.0003446851631613463 -6.736691474932672e-05 -0.00028624339964597543 -0.00015800504220113683 -3.73973279733854e-05 -0.00020442315304043256 -2.028749663544387e-05 -8.228078199378367e-05 -0.00010918223028094786 0.00026908833479655166 -3.256612840081262e-05 8.528251010717825e-05 2.9623251979512736e-05 8.052826427289755e-05 -0.00011684719439521356 -0.00023702230126364652 -0.00022140511167023397 -0.0002619679371180371 -0.00029650746986316075 -6.022688605439466e-05 -0.00012455271340690467 -0.0001804694955536125 -0.00019009401202745255 -0.00013876337952989557 -5.882066148304238e-05 4.541688047993995e-05 -1.556255454941719e-05 -7.4725022654501015e-06 2.0569549227354323e-05 -0.00024486172669017106 -0.00015920531375218013 -0.00020016631246100704 -3.094215434182047e-05 -0.00019751719999530946 -0.00017028605654986268 -3.883749293137716e-05 -3.2034854580132186e-07 -6.336482989309156e-06 5.215142395230927e-05 0.00011139278445076238 6.558743439659693e-05 2.4768086635692016e-05 -0.0001308396544084197 -6.631629513441071e-06 0.000247119127062889 -3.107031313132337e-05 -3.116664591776161e-05 3.827417965529087e-05 9.637159706754007e-05 0.00017492317581731473 -0.00011675913554660542 4.5646555306880546e-05 -3.5449192222744204e-05 6.273341402503955e-05 0.00013211610818896876 3.4812052585754874e-05 0.00023396906706801563 0.00026072052203948443 0.00019377202552109366 0.0002601476198522638 -1.0803123583401367e-06 3.30843002946657e-05 -4.173521066941006e-06 0.00030023292398060545 0.00021018509036101402 5.5649800012332377e-05 0.00027655712227250535 0.00018577718200657806 0.00028496677555111497 0.000260177048068055 0.0002755560337920579 0.00018345557446456116 0.00028444677902846066 0.00030585003066511496 0.0003036498768341522 0.0003112400429219426 0.00029829662750313385 0.00017495619414814774 0.00023345503459958376 0.00011324813546020527 0.00012199908358702746 0.0002188676939370428 0.0002759950144698334 0.0002868685223035679 0.00024513834100593014 0.0002622471914789828 0.00016567634207667836 0.000111495749802221 0.0002538587863945593 0.0002528141423215398 0.00020821935075815125 0.00013941386446841353 0.00024901812685961336 0.00020267780134806322 0.0002808364004500699 0.00026651213588696623 0.00010618508446966718 0.0013245567398344723 0.0002556115458200363 7.674723449436639e-05 0.00011803210697565804 0.0002818956236277394 0.0001725395395528121 0.0007168230341944529 -0.0003522416153737063 -0.00037100796822389447 -0.00032350125809308235 -0.00011827685476067003 -0.00016087098377850123 -0.0003563134947382752 -0.00025742772975924746 -0.00019210547117325862 -0.0002513290857193607 -0.00020443659664456744 -0.00029269170137770145 -0.000265593783574281 -0.00024062941218686593 -0.00027855810808094305 -0.0002897571138534947 0.0001708294398890405 -8.682696153895412e-05 -3.499134196849452e-05 -9.088942213889639e-05 -8.749596599845123e-05 -3.795953369109003e-05 3.64337133444157e-05 -8.68256725580669e-06 2.267998473228472e-05 2.2970061288342374e-05 7.082382814133192e-07 8.222092371070093e-05 5.052409446683694e-05 6.93552075816243e-05 5.1833199091743745e-05 6.200417194545096e-05 8.918633412053237e-05 -1.2123309804157201e-05 6.191416994334422e-05 0.00012314085807486967 9.518685404447745e-05 0.00011419801612181731 0.0001383153617195798 0.00013735707436569257 0.00013342276999033867 0.0001268412487742531 0.00013677173651244464 0.00013715628993026045 0.00013797034535324533 9.107268569580878e-05 0.00017068217662718978 0.0001189937839646683 0.00013983533094983394 0.00011287176353474784 0.0001406270539298792 -1.6092233032341285e-05 2.2881834742759967e-05 0.00010117526334276814 0.00010447595596966502 0.00013326368454402027 8.721139589882477e-05 0.00015865484034617726 4.1646169882750134e-05 0.0001230553810231726 0.00015249659066229998 3.183828473298892e-05 0.0001488072829595149 0.00014174742819624174 7.049926013592612e-05 9.195925368815953e-05 -5.095469476668636e-06 0.00012908853560075677 6.417805714874706e-05 3.4979482810165815e-05 -4.649697459136185e-05 0.00010045043612849413 -3.0789025780111944e-07 6.965379951178317e-05 -7.033054031493542e-05 0.00011835616097663888 0.00012227724359484252 9.989872744826266e-05 0.00015716319325532135 0.00021324915379109064 0.0001904095237144606 4.430937082189322e-05 0.00016654006773511067 0.00014749362313550961 0.00017574817011738091 0.00019283710248911218 0.0001862676690781051 0.00015640318632147114 0.0001360445672578336 0.00016306087456547316 0.0001832015554217115 0.00020319504039954992 7.044690129297165e-05 0.00016028788295792783 0.00022953789906927216 0.000208433582094129 0.00021341743607651768 0.00022336628853167394 0.000209325618352673 0.00022929268254294496 0.0002219640921273175 0.00025767749167379705 0.00012852334851076966 0.0001545296797858456 8.095330790166458e-05 0.00013838125176262383 0.00022505372558910346 8.354877833716425e-07 0.00017710705290820654 0.00013082189971289017 0.00012053712967269917 0.000253099885583626 0.00010844011331872013 2.0834118986054724e-05 0.00016676728014140862 0.00010536412474136802 0.00010950782062314509 0.00014374024144106514 0.0001343234461343436 0.00023558696665834262 8.018010291067172e-05 0.00019095922394809443 6.835672410617347e-05 0.00011287149345787729 7.531995406633927e-05 0.0001616590829063509 0.0001087282785336586 8.037657099074723e-05 9.938952819524649e-05 6.466551182201843e-05 0.00012306838749002265 0.00012469354929796366 4.2056332409531573e-05 2.6978803313824218e-05 -7.917757961348002e-06 -5.069440586569417e-05 5.48207153539628e-05 8.698146056875089e-05 9.836172563554663e-05 -9.129374380358063e-05 4.977748449224287e-05 -8.122128404197526e-05 -8.419717159577582e-05 -5.007824660653369e-05 -7.089681717657784e-05 -8.971474212321465e-05 -4.969906925300991e-05 1.602351244821223e-05 -9.065772241043465e-06 -5.048688942029815e-05 1.7675570479205873e-05 -8.034457630716347e-06 -7.712261343414793e-06 0.00013788992435005237 2.795814906173853e-05 6.625630463102346e-05 2.4640548325682573e-05 -5.902918791747855e-06 -1.4701627098579201e-05 -5.2973249013489884e-05 -8.04732474368772e-05 3.1320503309301434e-05 -4.2230677477984625e-08 -3.0599966507910465e-05 3.211541843071387e-05 1.1472345933998379e-05 0.00010047468180990717 5.710045286330534e-05 9.903005437903888e-05 8.590805551658787e-05 0.00018027112228347991 0.00012322061003830433 0.0001367954036672593 0.00012055631158719867 0.00014879618795560518 8.764934773548826e-05 6.0381722026627265e-05 0.0002080915605232053 0.00012986166906408028 8.274375091757582e-05 0.00016873917385425656 0.00021937252095027986 0.00017050226493103794 0.00023059049319055632 5.1426249555169625e-05 2.9405063562658796e-05 3.327766295620118e-05 9.651388845990641e-05 5.379115644471854e-05 0.00016355098511030907 0.000220029097367171 0.00026253840257522125 0.00018603174643720252 0.00016323494337103518 0.00027091122499321995 0.00021404047108460267 0.00013537748139689834 9.224565594675738e-05 9.93088378281379e-05 6.967006953953128e-05 0.00013922203529795647 3.972160617970813e-05 0.00014562832180213198 0.0002496628977933956 0.0002613435471825961 0.00012132312275169908 0.00021698845196392586 3.2363981203923865e-05 0.00023973103137257234 9.921826440198412e-05 3.545149619366606e-05 4.4522597474497975e-05 0.00013008127685701444 5.787274071759703e-05 3.0214756487586067e-05 3.59286249963017e-05 3.888041650521726e-05 5.854970356196697e-05 4.14305796697302e-05 7.821444786187657e-05 2.212851947528171e-05 7.179442834856232e-05 5.858611536707206e-05 9.299252528430147e-05 4.5897371382376394e-05 4.1180968203532256e-05 5.451940643556316e-05 9.05900055049057e-05 7.83233948026908e-05 7.150421404520524e-05 8.422375257527735e-05 6.218666438383699e-05 9.149445361881362e-05 9.57388436159357e-05 8.476886469389002e-05 0.00010318235123631625 7.347921661595761e-05 4.9624086572192026e-05 4.485287918415166e-05 9.349087270915955e-05 -5.061444137611073e-05 3.2376636163263266e-05 -3.658163882194332e-05 8.372553487322296e-05 0.0001997103786114661 0.00020027116613079382 5.7491506911398445e-05 2.787811530361408e-05 7.815466296681422e-05 3.1997491822916e-05 2.2420285164914427e-05 8.1412562393095e-06 0.00024925765212355054 -5.995345012440799e-05 0.0001211165523351876 0.0001273370420698405 0.00011529367704665017 -2.0985389662632595e-05 4.529997868364494e-05 2.9624131025173817e-05 0.00024003906506936583 7.858994923249231e-05 0.00020192328050718504 0.00012102810666913645 7.006087682351644e-05 7.562369309148458e-06 0.00010673258605984218 -3.484239595754213e-05 -6.81130152285092e-05 0.0001065128689410123 0.00010203783743343523 8.42834364199565e-05 4.2826762067979304e-05 0.00026472595639292904 2.4219545179046963e-05 8.9045975082374e-05 8.54490298073732e-05 0.00021658654754492892 0.00011830210544674593 0.00010741390365223901 0.00019744202067695314 9.556497357728764e-06 0.0005595574208853004 0.0005050767277416876 -3.9101586657954534e-06 0.00014988260533614566 0.00025825392818787786 -8.658286109884395e-05 -6.620609651595862e-05 -9.423520716997618e-05 -7.629881472820731e-05 -5.378353443030148e-05 -1.9696454861865424e-05 0.00025596178292296894 6.408660145005311e-05 0.00029823122346912313 0.0004299034707683813 0.00046791081473074157 0.0004841744302176317 -3.357992029168212e-05 0.0002310375869774004 0.0004047474667083543 0.00046841652898266 0.00011412413660749457 0.0006894399448841459 0.00018777225391967031 7.434484946801735e-05 0.00011804222624462642 -4.741402514525501e-06 0.00036298259467616517 0.0005255626407230194 -3.3650979007208314e-05 0.00020675095136836442 -8.56148530053757e-06 0.00042428401047515035 0.00018630521579212297 0.0006238213600730745 0.00011632251302665622 0.00010125248231693574 4.7276077955240075e-05 0.0004552771733653696 0.00015385001729404502 0.00021933884480259563 5.385354380114907e-05 4.0333083700164484e-05 8.377740631012456e-05 0.0002434504597172853 9.02221363049695e-05 8.985186821116348e-05 3.614009639046444e-05 0.0001578973966394756 8.991733139330387e-05 0.0001712243906551349 0.0004723083421646947 7.873729656306264e-05 0.00010016389745958088 0.00044519838968908715 0.0005706520680803328 0.00012109663818949719 0.00014751345373321487 6.140834237115946e-05 8.656549974268755e-06 0.0007684712275722343 0.0004511219147030425 0.0001018224470569241 0.000661148377196315 0.00016153689897620624 7.442747703533227e-06 0.0004776191906689386 0.0001283025847621496 0.00012068952189463695 1.75296401907261e-05 0.00043753000382887 -0.00011916973514032342 0.0004426422186697845 0.0004375984254607212 0.00011122547036677174 0.00019486558290217546 1.3397808776085596e-05 -6.497323582830349e-05 0.00018386563785711908 -0.0001464024547933598 0.00018927226540289225 0.00012601171592491615 0.00017335240307115107 0.0001502356503508515 8.43154793963656e-05 0.00016899111373032378 0.00013502335690300112 0.00015728642649303186 7.257166407168537e-05 0.00017000665346739028 0.0001699411652089757 0.00018446234301215406 0.00017454424019735382 0.00017434642204532802 0.00015956290537267782 5.3762686777671843e-08 0.0002555539807428218 0.0001348057842527124 0.00020256514637210254 0.00019802728060182057 0.00022442435557029606 0.00019644938183790707 0.00014970600351380063 8.674051945705654e-05 8.279748479686022e-05 7.066990262910488e-05 0.00024883123934805855 0.00025090386576021083 0.0003435055397273316 0.00040205336266146063 0.0003648365125782467 0.0004244610812941456 0.00010096145180355012 8.41323250503654e-05 5.670896012392767e-05 0.0004867967936124533 0.0002819333535881208 7.045390142105305e-05 9.116305963473978e-05 0.0004525073960487734 4.5114309987953596e-05 0.0007774447227575521 0.0007352835378858475 0.00013394374704267086 0.0001167935552581943 9.421445797099539e-05 0.00010887884945923992 -6.81889397207732e-05 -3.6949960760383856e-05 1.1480242870883483e-06 7.121334124165047e-05 6.616169678554992e-05 6.323292635149288e-05 6.499200993501179e-05 6.731020437946327e-05 2.8048127387585604e-05 3.449450906774828e-05 -8.247722082796693e-05 1.661355895175385e-05 -1.666945527061417e-05 6.296704799224315e-05 5.677039118670579e-05 -7.602303890884201e-05 4.045359781224036e-05 4.646569641451603e-05 6.6636495700