<?xml version="1.0"?>
<VTKFile type="UnstructuredGrid"  version="0.1"  >
<UnstructuredGrid>
<Piece  NumberOfPoints="1289" NumberOfCells="2413">
<Points>
<DataArray  type="Float64"  NumberOfComponents="3"  format="ascii">0 0 0  0 0.41 0  2.2 0.41 0  2.2 0 0  0.1 0.1 0  0.1 0.3 0  0.8 0.3 0  0.8 0.1 0  0.25 0.2 0  0.248976 0.210065 0  0.245948 0.219718 0  0.241038 0.228563 0  0.234448 0.23624 0  0.226448 0.242432 0  0.217365 0.246888 0  0.207571 0.249423 0  0.197468 0.249936 0  0.187467 0.248404 0  0.17798 0.24489 0  0.169395 0.239539 0  0.162062 0.232569 0  0.156283 0.224265 0  0.152293 0.214968 0  0.150257 0.205058 0  0.150257 0.194942 0  0.152293 0.185032 0  0.156283 0.175735 0  0.162062 0.167431 0  0.169395 0.160461 0  0.17798 0.15511 0  0.187467 0.151596 0  0.197468 0.150064 0  0.207571 0.150577 0  0.217365 0.153112 0  0.226448 0.157568 0  0.234448 0.16376 0  0.241038 0.171437 0  0.245948 0.180282 0  0.248976 0.189935 0  1.1 0 0  1.1 0.41 0  0.1 0.2 0  0.45 0.1 0  0.45 0.3 0  0.55 0 0  0.275 0.1 0  0.275 0.3 0  0.275 0 0  0.55 0.41 0  0 0.205 0  0.825 0 0  0.825 0.41 0  0.275 0.41 0  0.1 0.15 0  0.1875 0.1 0  0.1 0.25 0  0.1875 0.3 0  0.132322 0.2 0  0.241426 0.253518 0  0.241426 0.146482 0  0.264574 0.17974 0  0.264574 0.22026 0  0.138434 0.187348 0  0.153372 0.150948 0  0.148413 0.164094 0  0.176495 0.136535 0  0.22768 0.143571 0  0.138434 0.212652 0  0.148413 0.235906 0  0.176495 0.263465 0  0.22768 0.256429 0  0.23125 0.3 0  0.24769 0.24094 0  0.23125 0.1 0  0.24769 0.15906 0  0.26253 0.193641 0  0.190482 0.137872 0  0.166753 0.146661 0  0.157737 0.244461 0  0.190482 0.262128 0  0.203107 0.261264 0  0.253635 0.22977 0  0.203107 0.138736 0  0.253635 0.17023 0  0.261028 0.206206 0  0.167707 0.251809 0  0.143629 0.224191 0  0.215302 0.2591 0  0.270465 0.245894 0  0.215302 0.1409 0  0.270465 0.154106 0  0.284052 0.202587 0  0.14375 0.3 0  0.209375 0.3 0  0.225966 0.278501 0  0.209375 0.1 0  0.225966 0.121499 0  0.211613 0.273759 0  0.211613 0.126241 0  0.143629 0.175809 0  0.1 0.175 0  0.133484 0.164832 0  0.144491 0.249539 0  0.1 0.225 0  0.133484 0.235168 0  0.3625 0.3 0  0.25691 0.253381 0  0.25691 0.146619 0  0.277205 0.188698 0  0.184724 0.275712 0  0.237372 0.268285 0  0.184724 0.124288 0  0.237372 0.131715 0  0.197578 0.273149 0  0.193656 0.286994 0  0.197578 0.126851 0  0.193656 0.113006 0  0.122953 0.187671 0  0.118362 0.153758 0  0.155372 0.258107 0  0.122953 0.212329 0  0.118362 0.246242 0  0.276394 0.27264 0  0.276394 0.12736 0  0.280965 0.170013 0  0.253125 0.3 0  0.14375 0.1 0  0.253125 0.1 0  0.269489 0.26014 0  0.269489 0.13986 0  0.303639 0.184297 0  0.165625 0.3 0  0.134742 0.273113 0  0.257831 0.274737 0  0.255279 0.128499 0  0.3625 0.1 0  0.165625 0.1 0  0.162031 0.132368 0  0.134955 0.126405 0  0.149334 0.125568 0  0.142936 0.139597 0  0.12695 0.140259 0  0.242514 0.285501 0  0.242514 0.114499 0  0.1 0.125 0  0.117483 0.12555 0  0.11154 0.139776 0  0.121875 0.1 0  0.109143 0.1125 0  0.126805 0.114 0  0.220313 0.29129 0  0.351562 0.287369 0  0.207222 0.2866 0  0.220312 0.10871 0  0.1375 0 0  0.20625 0 0  0.207222 0.1134 0  0.11722 0.17118 0  0.1 0.1625 0  0.0778409 0.16875 0  0.0862762 0.15625 0  0 0.15375 0  0 0.1025 0  0.11722 0.22882 0  0.1 0.2375 0  0 0.3075 0  0.0862762 0.23125 0  0.0598995 0.222547 0  0.0860223 0.2125 0  0.289584 0.181469 0  0.300267 0.16446 0  0.163832 0.269071 0  0.149597 0.273325 0  0.1 0.275 0  0.268498 0.285953 0  0.31875 0.3 0  0.294154 0.254672 0  0.296875 0.3 0  0.293558 0.271845 0  0.285095 0.286799 0  0.324298 0.264316 0  0.307866 0.263745 0  0.317093 0.234901 0  0.315485 0.281219 0  0.316547 0.250625 0  0.344693 0.243731 0  0.331592 0.251147 0  0.35129 0.270663 0  0.338689 0.263683 0  0.340625 0.3 0  0.249849 0.264383 0  0.265097 0.11422 0  0.284688 0.156136 0  0.242188 0.324017 0  0.0856613 0.2625 0  0.132812 0.0612217 0  0.264062 0.0612217 0  0.198437 0.07598340000000001 0  0.0860223 0.1375 0  0.0794526 0.191089 0  0.285228 0.140397 0  0.298655 0.148737 0  0.31875 0.1 0  0.327335 0.15374 0  0.296875 0.1 0  0.312289 0.155283 0  0.313348 0.135607 0  0.321802 0.173916 0  0.298433 0.134116 0  0.112124 0.2625 0  0.127526 0.259083 0  0.121875 0.3 0  0.0682687 0.241503 0  0.1 0.2875 0  0.117762 0.28125 0  0.107813 0.3 0  0.103906 0.313849 0  0.0778409 0.28125 0  0.1375 0.41 0  0.0862762 0.29375 0  0.08886860000000001 0.24375 0  0.307812 0.338778 0  0.307812 0.292227 0  0.33216 0.279164 0  0.387888 0.266414 0  0.264063 0.31948 0  0.110937 0.07598340000000001 0  0.242188 0.07598340000000001 0  0.319914 0.11839 0  0.340625 0.1 0  0.334448 0.133793 0  0.329687 0.108539 0  0.346259 0.118491 0  0.360334 0.173636 0  0.327539 0.205033 0  0.132812 0.288712 0  0.362436 0.278836 0  0.368105 0.259418 0  0.4125 0.41 0  0.329687 0.324017 0  0.329687 0.292306 0  0.285938 0.318952 0  0.417187 0.338778 0  0.324481 0.14148 0  0.351562 0.106771 0  0.40625 0.1 0  0.341028 0.168342 0  0.319221 0.190479 0  0.335292 0.184501 0  0.305563 0.20794 0  0.220313 0.31948 0  0.132812 0.332772 0  0.0865876 0.311259 0  0.0598995 0.302453 0  0.0906541 0.343255 0  0.353543 0.255837 0  0.36574 0.237633 0  0.405007 0.254279 0  0.275795 0.352123 0  0.4125 0 0  0.35493 0.137394 0  0.366563 0.120618 0  0.35917 0.205246 0  0.198438 0.318952 0  0.0626109 0.263892 0  0.40625 0.3 0  0.354809 0.155936 0  0.386512 0.146872 0  0.373101 0.159939 0  0.384375 0.1 0  0.343394 0.19929 0  0.350682 0.185683 0  0.368101 0.189748 0  0.344016 0.221511 0  0.391108 0.213329 0  0.376279 0.204783 0  0.398843 0.182768 0  0.375804 0.222746 0  0.390665 0.196958 0  0.394004 0.23518 0  0.359883 0.222828 0  0.419908 0.204359 0  0.404243 0.204783 0  0.412615 0.224526 0  0.20625 0.41 0  0.165625 0.325257 0  0.0347982 0.244954 0  0.379558 0.247154 0  0.34165 0.147603 0  0.372264 0.136992 0  0.388988 0.121989 0  0.373437 0.108554 0  0.351562 0.31948 0  0.391367 0.16527 0  0.399572 0.223324 0  0.452011 0.227371 0  0.40877 0.239392 0  0.431491 0.237337 0  0.421224 0.250459 0  0.449619 0.262098 0  0.418865 0.276779 0  0.437063 0.252274 0  0.415673 0.263227 0  0.430988 0.266772 0  0.402767 0.273419 0  0.452967 0.244883 0  0.428125 0.3 0  0.408502 0.286186 0  0.384375 0.3 0  0.392267 0.285807 0  0.465927 0.219339 0  0.43489 0.283846 0  0.376424 0.286289 0  0.625 0.3 0  0.473533 0.205186 0  0.461713 0.255517 0  0.5375 0.3 0  0.465725 0.235405 0  0.44631 0.201425 0  0.471875 0.3 0  0.494307 0.227729 0  0.459448 0.206736 0  0.462294 0.180792 0  0.478933 0.227536 0  0.486793 0.21381 0  0.486322 0.251373 0  0.50065 0.215318 0  0.54005 0.175389 0  0.474633 0.189893 0  0.512916 0.208697 0  0.49531 0.199967 0  0.475889 0.175275 0  0.625 0.1 0  0.459311 0.153933 0  0.513645 0.242704 0  0.392892 0.248539 0  0.374815 0.271913 0  0.365974 0.14871 0  0.395312 0.109184 0  0.417061 0.123981 0  0.483196 0.277003 0  0.381967 0.179632 0  0.429898 0.219374 0  0.433473 0.206165 0  0.43149 0.181038 0  0.444208 0.215487 0  0.472985 0.247309 0  0.49375 0.3 0  0.475579 0.262714 0  0.49916 0.274293 0  0.501175 0.184809 0  0.514164 0.225681 0  0.543648 0.214977 0  0.5341630000000001 0.23481 0  0.527396 0.216171 0  0.5375 0.1 0  0.534548 0.202315 0  0.561545 0.192513 0  0.5494289999999999 0.201221 0  0.570923 0.218346 0  0.412582 0.149833 0  0.489327 0.264745 0  0.502439 0.254775 0  0.462391 0.271166 0  0.496775 0.241732 0  0.5294410000000001 0.268606 0  0.482812 0.291099 0  0.46879 0.285038 0  0.452663 0.284065 0  0.51789 0.257882 0  0.53408 0.252026 0  0.560142 0.243543 0  0.545708 0.243474 0  0.547532 0.229019 0  0.55282 0.265323 0  0.398971 0.153424 0  0.400349 0.135684 0  0.410135 0.168145 0  0.428823 0.161323 0  0.415266 0.183779 0  0.329687 0.0810483 0  0.395312 0.0612217 0  0.373437 0.318952 0  0.439062 0.324017 0  0.561816 0.229354 0  0.585029 0.239287 0  0.431827 0.139854 0  0.446796 0.168929 0  0.351562 0.07598340000000001 0  0.395313 0.318944 0  0.54337 0.150762 0  0.460937 0.31948 0  0.418412 0.137529 0  0.428125 0.1 0  0.442783 0.152332 0  0.450742 0.134294 0  0.373437 0.0805201 0  0.384383 0.342558 0  0.482812 0.318952 0  0.429239 0.127457 0  0.444274 0.117405 0  0.426548 0.113815 0  0.49375 0.1 0  0.488954 0.113984 0  0.457973 0.121842 0  0.471621 0.137346 0  0.515625 0.325257 0  0.48125 0.41 0  0.417187 0.07598340000000001 0  0.496363 0.126778 0  0.479043 0.155715 0  0.439062 0.0805201 0  0.481795 0.126919 0  0.471875 0.1 0  0.489227 0.142159 0  0.515625 0.1 0  0.520062 0.147117 0  0.501244 0.161791 0  0.505431 0.112984 0  0.505344 0.14029 0  0.526563 0.119081 0  0.5181750000000001 0.131908 0  0.539868 0.136937 0  0.460937 0.108383 0  0.474242 0.114415 0  0.460937 0.0810483 0  0.487841 0.167168 0  0.526563 0.0612217 0  0.526563 0.106406 0  0.537619 0.112743 0  0.58125 0.1 0  0.559375 0.1 0  0.482812 0.08105569999999999 0  0.471883 0.0587655 0  0.570312 0.129396 0  0.548437 0.07598340000000001 0  0.504687 0.08105569999999999 0  0.49375 0.0470127 0  0.570312 0.112663 0  0.592798 0.12103 0  0.553986 0.12103 0  0.570312 0.0805201 0  0.48125 0 0  0.114787 0.2 0  0.160769 0.284765 0  0.175816 0.288361 0  0.162602 0.116048 0  0.154687 0.07598340000000001 0  0.176562 0.0805201 0  0.0598995 0.147547 0  0.307812 0.109924 0  0.291279 0.117157 0  0.278491 0.112989 0  0.285937 0.07598340000000001 0  0.307812 0.0805201 0  0.296928 0.196743 0  0.318141 0.218507 0  0.330208 0.227509 0  0.301397 0.225668 0  0.302706 0.241401 0  0.292574 0.21424 0  0.282762 0.230935 0  0.284351 0.244775 0  0.269553 0.23261 0  0.278572 0.217242 0  0.226924 0.342606 0  0.446928 0.185396 0  0.515625 0.3 0  0.504687 0.288879 0  0.515256 0.276534 0  0.529479 0.285328 0  0.58125 0.3 0  0.541969 0.272936 0  0.559375 0.3 0  0.556796 0.282529 0  0.543473 0.287206 0  0.581429 0.267774 0  0.566728 0.271171 0  0.570869 0.255585 0  0.577404 0.283865 0  0.603125 0.3 0  0.597531 0.28035 0  0.570312 0.338778 0  0.592188 0.292492 0  0.603513 0.256094 0  0.614063 0.286265 0  0.610329 0.27064 0  0.632708 0.251285 0  0.657223 0.261594 0  0.618789 0.257807 0  0.614188 0.22987 0  0.630935 0.265614 
[...]
<PointData  Scalars="p"> 
	<DataArray  type="Float64"  Name="p"  format="ascii">
0.0004448419685594406 0.0005220207575882387 7.56185317391743e-07 4.75564834529459e-06 0.0004952868438936427 0.0005880966389065933 0.0002584686236142892 6.246849339734452e-05 -0.00031635367588976393 -0.00026735405680340354 -0.00023949422202256267 -0.00023305843484798026 -0.00026665344715304755 -0.0003193725737706744 -0.00040767176967812003 -0.0005411137639612352 -0.0006486950812106693 -0.0008081286219885524 -0.0005757499518198576 -0.0001920565054455398 0.0003447484352827308 0.0009936324537350527 0.0015047378362409878 0.0018070273131897928 0.0017672598154330821 0.0013835690366890106 0.0008206464632856186 0.00011703790343981643 -0.0005649921934591008 -0.0008692073843208707 -0.0010921352640540854 -0.0009670213409781917 -0.0008414857149833093 -0.0006938826766596951 -0.0005785038381880862 -0.0005165165668480637 -0.0004815936974130876 -0.00044107812436869885 -0.00038381409644673635 0.00014233327618540055 0.00014076259959190516 0.0011748418688244443 0.00026518606649518213 -4.9429488843931755e-05 0.0003014063216134513 -0.00023855764842042784 -3.6049594388821855e-06 3.3602166703290143e-05 4.174426386958551e-05 0.00078059198818158 0.00011454896608918893 0.0002266513444187961 0.0002144675302161817 0.0008066196461076279 -3.5535618698009625e-05 0.0008809913982311568 0.00015292526558965223 0.001597171709320834 -0.00025138619727945886 -0.0004923686238359283 -0.00042810281051969544 -0.0002516659931336717 0.0015180642646299574 0.0002474471834508459 0.0006734121768961255 -0.00045864351028726097 -0.000590997429301937 0.001587631837277745 0.0008347645960054362 -0.00020684574070688395 -0.00032195830014575705 8.2683899918481e-06 -0.00024329552096722583 -0.00020283783437497212 -0.0004718994421578298 -0.0003609145864768186 -0.000756734165835359 -0.00030993285054439486 0.0003220860616169428 -0.0004898646948975363 -0.0004963705748569537 -0.00023864974598338816 -0.0007908224624240449 -0.00045300063732408593 -0.00029798722748584526 -0.00011255980088962619 0.0012637773517272933 -0.00040250011208218096 -0.00018948820004620448 -0.000685480532518209 -0.0004874947644965672 -0.0003295307628765424 0.0004393222527860893 3.2479267199126186e-05 -0.00019307295544783348 -0.00012895616693164462 -0.0004203760185061904 -0.0002820138109401475 -0.0005314129330317961 0.001135292753092311 0.001031288112511007 0.000992674554408976 0.0006433446229987353 0.0010953018309752638 0.0011194733014268726 -4.700632212729981e-05 -0.00020930851383993854 -0.00047283825348371617 -0.0004010844461706897 -0.00010377348919732906 -0.00024949061995218957 -0.00032479971052299414 -0.000515967889059721 -0.00023726339332063266 -8.431712048746911e-06 -0.00045574865804526543 -0.00020565692971291215 0.0013608929447759051 0.0008573661701090029 0.0003665599578592755 0.0013975558696597838 0.0009525894514015094 -0.0001156115289267568 -0.00046689601876811034 -0.0004938344994895399 -1.8329314775945198e-05 0.0003069057687805065 -0.00022569888520624907 -0.0001634860681493404 -0.0004918153376690357 -0.0004797947792395799 0.0002968671249963781 0.0006036075484924868 -0.00016603733693122203 -0.0004441622530807639 -7.20684129278232e-05 0.00016619701385776187 4.426507380874473e-05 0.00045661754841664243 0.0002934389246635365 0.00037778424544966264 0.0006173538611451208 -0.0001144656877767238 -0.00034183852011331143 0.0006109921418482098 0.0005652546004698807 0.000693805675484568 0.00042853342333286424 0.0005188891630393292 0.0004586465399173917 -5.044739845779922e-05 -7.421425208451699e-05 -9.785906164727336e-05 -0.0002638876116357469 0.0003565967470825502 0.00017804100421172026 -0.0002911507736192675 0.0010823287641264008 0.0009154515685132472 0.0008892803315886093 0.0008261463173738475 0.00068972295921246 0.0005358914569131777 0.0011488091123225523 0.000997027619109368 0.0005932589142741871 0.0009517099644343127 0.0008802427687368527 0.0010335568433249584 -0.000465772772435733 -0.0005713857324136745 0.0001703021139503544 0.0004173413133286064 0.000702513119464828 -8.549656626282726e-05 3.0505669642093026e-07 -0.00011071961956425208 -6.302045950885054e-06 -8.907698792702309e-05 -6.128157575968804e-05 -6.654728801569026e-05 -7.086739310822806e-05 -0.00013564897393808438 -4.925909117467776e-05 -8.343371716437922e-05 -0.00011116945311343283 -7.927709595565542e-05 -0.00010688036552445664 -8.038999527493898e-05 -2.850033642144289e-05 -0.00021144930959451151 -0.0003635674471814723 -0.0005356431560810166 0.00013599099170897905 0.0007867568652575157 0.00034909508707093564 -2.2193913569630755e-05 9.316752604957093e-05 0.0006920744860875915 0.0009813858825666992 -0.0005300561839208663 -0.000579862573453906 -0.00021728555828114292 -0.0005882471019314224 -0.0002635476117182408 -0.000608705264504796 -0.0005418682090675235 -0.0005673066638697614 -0.0005296677571761257 0.0007765815881865932 0.0007363639645125894 0.0005393836383126775 0.000843098946740081 0.0006478738283933876 0.0006303134608316683 0.0005686680587988025 0.0005396607948070332 0.0006732352986166339 0.00045469853378675694 0.000625783982079196 0.0009036080918873698 0.00011313975204434058 -2.8032723254200357e-05 -6.616596865263555e-05 -0.0002480768981230041 8.351434103095623e-05 0.0004219998972029767 -3.97461609936638e-05 -0.0003671019903354523 -0.00017353448699106478 -0.0004428778573679542 -0.00026035546490542116 -0.0002476555480801341 -0.00039712972666814734 -0.0003141105709963089 0.0005189010219351332 -0.00013484678930049 -0.00017291073128751622 0.00010335774896537817 6.78748493575367e-05 -4.499738302078861e-05 6.903613690495643e-05 6.59985475258941e-05 -0.0005464269921783055 -0.00015413287977192571 0.00011761587728860612 -0.0005375876646468795 -0.0004432619174412806 -0.00047497443614797117 -0.00030282429818435615 0.00012982846713898325 0.00046041548433934325 0.000571570930739731 0.000606634491866031 0.0005091507698980395 -0.00012058904867275411 -0.0001846609860821152 -0.00033608766764165707 0.00018491240198876334 7.917606798072678e-05 -0.000313252494638088 -0.00012720160943593674 -0.00027091377559276624 0.00022414511479116255 0.0007408373957180917 -8.146830420966065e-05 -0.0004200472149072337 -4.8330949555844374e-05 -0.000248376503860494 2.2112038667159675e-05 -0.0003389524914739587 -0.00041246120439033607 -0.0003085694999038439 -0.00018650718145550474 -0.0002784667675631126 -0.0002534956234938251 -0.0001516931113945835 -0.00023182700302045218 -0.00023145202002683917 -0.00031488599096154144 -0.00019453741497603866 -0.00029753959839995923 -0.0002764776598124737 -0.00037919693162149956 0.000339844768514319 0.00034370864981240416 0.0007573186356860926 -0.00023977342890969968 -0.0004865135778176846 -0.00013911288126789142 4.06243080255717e-05 -4.717981089690751e-05 3.7848883754259214e-05 -9.868182669563019e-05 -0.0003272097817761848 -0.00037785362165490706 -0.0003763804513649283 -0.0004246221630149704 -0.000386634678145186 -0.0002661127867668107 -0.00023868401863683767 -0.00036792900414569797 -0.00032429476728323715 -0.0002972919077105811 -0.00025555217207359434 -0.0003419817211842375 -6.98622418729584e-05 -0.000171326664575269 -7.673377465842465e-05 -0.00017217559332362935 -0.00027569690280074966 -0.00017025794660705188 -0.00013589206679518828 0.00014432571632709838 -0.00016503653747922958 -0.0002394995349936058 5.856969238418138e-05 -0.0002835798794776957 -0.00025833312924978256 -1.41971802274959e-05 -7.120404383658931e-05 -0.00026130416501869165 -5.440660116302035e-06 -0.00019740249803067416 -0.0001121306821039338 -0.00010014289917782241 -2.517967658511349e-05 0.00017149631984581312 -5.0849896928470705e-05 5.5818008243715735e-05 -9.417081439925651e-06 8.383929211120307e-05 0.00018825819627709116 0.0002784848874723351 3.668944078084452e-05 -0.00029844358216214023 -0.0001791112055532582 -0.0002704422417612315 7.527718131398248e-05 0.00020867596677651932 -4.1296077285044134e-05 -0.00023405639819784504 -0.0003936021462333309 -0.0003152445306212141 -5.305472386021263e-05 -0.00035658128978976095 -0.0001996345764859404 1.6198961115408346e-05 -0.00012753892936381394 -2.954268244387085e-06 9.118297792873331e-05 4.0688099253523526e-05 0.00012073568817565226 0.0001049832910464973 9.526721151412705e-05 0.0003051945492909449 0.0001249820489213288 0.00011803103014124753 0.00012611958719106552 0.00011288599094370784 0.00014874590106110386 -5.1235924147611626e-05 -5.349285929748534e-06 -0.00015133967517787204 -5.045724142732082e-05 7.43451195161376e-05 -1.7317750994508365e-05 -7.467502733626152e-05 -0.0001191662889998314 5.19445103630186e-05 9.565243775954622e-05 0.0001299564188257656 0.00011573411405538204 0.00012012203758315646 0.00011070943635669547 3.201585462386842e-05 0.00011260079423541474 1.6693561471495197e-05 0.0001589088942373575 -0.00010656423559210879 -0.00010969323458250316 6.199158580032635e-05 1.4508744600049959e-05 2.5243916656078606e-05 0.0001263980163895248 0.00012210265851157328 0.0002853344369814324 0.0001092577381406242 -4.910812107570532e-05 1.0467556506429253e-05 0.00024226013204770968 1.4164936754963533e-05 0.0002162677017624599 0.00020453442179223816 0.00026531669164594975 0.0003452518343953496 -6.9727100512786835e-06 8.375385139312397e-05 1.4139407123650442e-05 0.00027592168254071106 0.00030315441913588933 0.00023424733713453522 0.00032241183659840154 0.0003462245903534612 0.00034317498340982207 0.00036932189487796257 2.9704823253124958e-05 4.609130803101249e-05 0.00011931758669763557 0.00036177748064272444 0.0002653607649950421 0.00019238370200899658 0.0003668674919745877 0.0003062628090165597 0.0003460958726989779 0.0003155309640734218 0.00029715205190023727 0.00022689920146647094 0.00033800218193870494 0.0003441479343146702 0.0003158871784891196 0.00032850735884552054 0.0002815391693464931 0.00031344310090888373 0.0003474171700069008 0.00024481892740672845 0.00017556505533584407 0.0003139641774698276 0.0003081502548746186 0.00028925019568183343 0.00025591747009272157 0.0002737861021146904 0.00027796281639876834 0.00023709622834326404 0.00018513667903819722 0.00031700554520931745 0.00030713626581276666 0.00025536953590741396 0.00023008692439261105 0.000158374207606964 0.000244489697704489 0.00030225018929402414 0.0002223703498152358 0.0013444084252351384 0.000304965703878897 0.00013041913466188283 0.00010223624059389084 0.00027604969651790515 0.00016236072002573487 0.0007272682760149062 -0.0003310059262065484 -0.0003971484129698012 -0.0003536656950219621 -0.00010276781537272171 -0.00012979272209090356 -0.00037846231988674425 -0.00022087448698922504 -0.00015353619956739518 -0.00019886778908540642 -0.00013203612240347376 -0.0002652531242733413 -0.0002049517258007811 -0.00015796650243859344 -0.00021847780230977666 -0.0002579843732425557 0.00023316088851696578 -8.83828096506393e-05 4.045014773980926e-05 2.149327693498245e-05 4.657402632191883e-05 6.067229846084887e-05 9.578864992327961e-05 9.244668684074048e-05 7.854953431725558e-05 9.559010962914619e-05 7.923106544332124e-05 0.00012898374097977826 0.00011712439738783675 0.0001311272638890027 0.0001123194974726272 0.00012120625924202981 0.0001314516996233485 4.41674099446283e-05 0.0001174858623616243 0.00012347092964003337 0.000139164996160659 0.00013442496296162942 5.8700032229570755e-05 9.213816705348411e-05 0.00010368018041505273 2.0521531442700582e-05 0.0001095527401304176 5.382524013138838e-05 0.00018358248263139452 -5.117810235522338e-05 0.0002428884793286224 0.00014055446882564935 0.0001258960941943226 0.00016289047707338439 0.00014760657426855753 3.418388300988177e-05 8.851513901364256e-05 0.00013321198348799828 0.0001307089600940383 0.00016617708401841304 0.00015443314976876628 0.00024043584860961796 0.00011899334986716915 0.00013176607600592357 0.00021402660614806208 3.293292778174484e-05 0.00018466020465230623 0.00020565207376913272 9.826948824924926e-05 5.4460624506959536e-05 0.0001098395854925912 3.933332305678174e-05 -4.3503205494161824e-06 0.0001191946280746337 -4.667538412224926e-05 -1.017677166065011e-05 -2.1840747315339962e-05 0.00016771353109098843 4.037880595819436e-05 0.000180742780656824 0.00020847690188246265 0.00019080893500315145 0.0002326137746324428 0.00027049753720442604 0.00025968341725459906 0.0001522055135409557 0.0002325683064093724 0.0002273323209964397 0.00024698879427697553 0.0002499048762225974 0.0002071114295235945 0.00012899607228164514 0.000209876731540188 0.00019689145835790936 0.00022859555423159988 0.0002077446033145965 0.00012210570639711627 0.00015038539872516034 0.000260973208186549 0.00024975791802054926 0.00023626489163695942 0.00023186797156038287 0.00019687477209454757 0.00022815705366078287 0.0002205766265133185 0.00025821946803453313 0.0001705062594661816 0.00022071556776368637 0.0001538633710486674 0.00022332556382848186 0.0002861825253208406 0.00011301965237373313 0.00017602047981034435 0.00014642690125396847 4.860273873004804e-05 0.00028146114323582527 0.0001804832300639259 -6.693147239320402e-05 0.00023998230729183295 0.00014869581205112728 0.00010291904130558715 0.00010462295257725383 0.00011188997241899931 0.00028733258233363526 0.00017354296681054476 0.00026579292617471927 7.24426107729343e-05 5.803564857090684e-05 8.858041104851102e-05 0.0001342476368827026 1.6083353437804687e-05 -0.00010307319976329898 -1.8171991524408774e-05 -5.690951460167442e-05 5.707021112692427e-05 7.243462051551833e-05 0.00010154316869305672 7.777651887901126e-05 9.185483957826081e-05 8.127869827428306e-05 6.846513602244723e-05 -1.6764091182480133e-05 6.326527727848321e-05 3.70160848950849e-05 8.597745514306001e-05 5.00104055323157e-05 3.568718804592943e-06 7.4935793976878e-05 -3.765626010799288e-05 -1.4640183849424316e-06 4.905665395407362e-05 8.4029479640797e-05 7.552935143565293e-05 6.557133457323923e-05 7.342898560867852e-05 7.185439590239915e-05 7.156826202365188e-05 0.00010766650825137891 7.255631322061443e-05 8.25856764117632e-05 8.192625637598214e-05 6.430819920700405e-05 6.0566401486448134e-05 1.7562929368580214e-05 2.0367455009250265e-05 -4.4417724592451265e-05 1.8492375891443174e-05 -3.645127275639576e-05 -0.00011527505228109911 -8.961770220190446e-05 -4.847958851392224e-05 -9.354247766732851e-05 -5.209152018240946e-05 -5.254021234216003e-05 6.406357799914304e-05 4.9733780282413355e-05 -8.829148581874695e-06 5.887912239163231e-05 2.859831746670335e-05 -1.233403173400463e-05 4.53773839317377e-05 0.00010740290599315886 0.00012511865220557098 0.00010134429282674942 9.8869279365764e-05 0.00021848229028600851 0.00014947631471871073 0.0001493249377334276 6.69393949942906e-05 7.536228704315991e-05 7.44199478144358e-05 6.87742176786248e-05 6.899576972623306e-05 0.00014037819523904182 0.00020757951663410485 0.0002785972889378701 0.00018306765855887283 0.00012163949517029235 0.00021919542365565604 0.00019650705980480248 0.00015395344884975865 8.407313590305517e-05 0.00010007709426009967 7.593374299172467e-05 0.00010820452786435846 7.368137566077712e-05 0.00014169568513730415 0.00024271502046919422 0.00027339582002654277 0.00010932463917501593 0.00014527295696429885 6.704845462725416e-05 0.0002307397062966738 7.225608820932028e-05 7.480384223125145e-05 6.930813654803645e-05 9.882540427059026e-05 9.961629345147613e-05 7.503948387983683e-05 7.936586368278998e-05 7.98482946924022e-05 7.27111139029055e-05 6.721197237097905e-05 1.3984802672537507e-05 8.74877811883866e-05 4.6612730680828045e-05 6.0574812721945894e-05 -0.00011910707803101833 8.510905630325336e-05 7.867188063661175e-05 7.157545260851216e-05 -3.719700098650875e-05 5.314169192065003e-05 5.755306848325667e-05 2.624481716297117e-05 6.867429371706974e-05 2.3482650918007503e-05 3.501500773689972e-06 5.3314980956074635e-05 3.7262995665078966e-05 6.484028282010316e-05 7.245074536804143e-05 7.391509293989643e-05 0.0001497954350493136 -1.1321795458132191e-05 3.951299871387631e-05 0.0001241974429453588 0.00017286813787906896 0.00024348109413186442 0.00023546743402063877 0.0001567158017708203 0.00013756431334927737 0.00014067119004930164 5.7359092956292326e-05 0.00014129474317723428 -1.3023589155352873e-05 0.00024390314013740687 -5.317840889903086e-06 0.00018475344649384313 9.416522652870258e-05 5.6241665179977965e-05 6.702900233526125e-05 0.00013246259941473434 0.00012404044461126172 0.0002783549609577764 0.00013255189920086135 0.00027375040318490437 0.00011611705898866782 -8.522402573471386e-05 -9.333561496959411e-05 -3.881667750843063e-05 -8.046548019345326e-05 -5.1685559468014136e-05 6.941255593417836e-06 6.999033506933961e-05 0.00010404834208180608 0.0001241704205526039 0.0003130435758200368 7.757908453246418e-05 8.618464012668552e-05 0.00020204215228484228 0.00027770664367617086 4.57892555919854e-06 0.00010497830139519204 0.0002592207871595967 0.00010268259064119136 0.0005648391291678856 0.0005449540514152441 2.0280378474066237e-05 0.00015560214450463115 0.00025300417257140517 -0.00023715592577215025 9.012027284115862e-06 -3.731014656413483e-05 -5.0146753872355204e-05 1.5853527436590805e-06 1.081887448527586e-05 0.0002936309984064305 0.00017365750182880257 0.000353992656699705 0.0004322785657964847 0.0005101090422043135 0.0005251190607464284 3.8339421529275135e-05 0.00028148521774509365 0.0004050643386720013 0.0005101001612521615 0.00017608715306000684 0.0007201257221179586 0.0002828731016717585 0.00011401377951781965 0.00021145475987212575 1.7656226997020066e-05 0.0004133984823197301 0.0005643913769276755 4.834719407879641e-05 0.00026722971500402985 -2.238790933457071e-05 0.00046990464108593574 0.0002608721086633186 0.000658212151109588 0.00011471518375446081 0.00010441226166964556 5.518110437844874e-05 0.0004588356068996046 0.00011538426288962109 0.00018728474354485895 0.00010377790419775837 9.081890298683915e-05 9.994925502806609e-05 0.00026081572884522995 1.7211563952244765e-05 0.00013081629450382686 3.753267903548593e-05 0.00023434133111009605 9.371411371728283e-05 0.00023412790964853032 0.0005138705035105167 0.0001243309265133484 0.00019231205047029113 0.0004895331464986863 0.0005781379244619458 0.00024777449357613415 0.00025110169756721855 8.561122662185467e-05 3.2013975929548546e-05 0.0007854902666802848 0.0004548559671149391 0.00020426832265228075 0.0006722040482997349 0.00023913021199613012 0.00011668064162368074 0.0004823526967186763 0.00023156027411363816 0.0001791564893376531 0.00016449801293211567 0.0004408539435510038 9.232394274162792e-05 0.00044602511814351994 0.0004408165932849084 0.00013749810724534003 0.00021466724410528805 5.577539651532033e-05 -7.734843240969318e-05 0.00022311339742478285 1.6235052117721787e-06 0.00023706749831146114 0.00011715461383291596 0.00020687395094548284 0.000158225392534383 4.491745538080642e-05 0.00019456302022305685 0.00014162026403012054 0.00013714157690797112 2.3146009213203142e-05 0.00018885941714041538 0.00022211230155274776 0.00020530501116478963 0.00020812308172821239 0.00017346582486638386 0.00017717758492417297 6.930535565349543e-05 0.0002269039264866212 0.00014290255584340866 0.00019227743855241403 0.0001792795384420497 0.00020878298286530075 0.00016838561221856787 0.00015211313617225758 0.00010563051555346922 0.00011118361205138166 -0.00021745492087415388 0.0002623738149219064 0.0002780462438164721 0.0003966187252662932 0.0004028807748222723 0.00036309132665866736 0.00042693532632490083 0.00015910554723183045 0.00013634496937776284 0.00015542900113140043 0.0005274823829586237 0.00027735378074793547 0.00010744987339902596 8.995592272618377e-05 0.0004957340148776695 5.608731441104121e-05 0.0008002541120386711 0.0007520504963638007 0.0002113208393253295 0.00017856649956578998 0.00010906257595373363 0.00014044612548728914 6.291270760232195e-05 -3.0390117302191846e-06 7.780929386915167e-05 4.245715569148864e-05 -0.00015598989151537857 -4.818451498783925e-06 -8.710623395248544e-05 2.4385667899065133e-05 2.738905722728175e-05 6.211421302623501e-05 -2.555361096359904e-05 -0.00017277134415112034 -5.4702081916419725e-05 8.533873520731952e-05 0.0001474950584471997 2.424440768130905e-05 -1.45583157570032e-05 0.0001243019898121616 5.01026954773466e-06 -8.217748423468624e-05 6.425820