<?xml version="1.0"?>
<VTKFile type="UnstructuredGrid"  version="0.1"  >
<UnstructuredGrid>
<Piece  NumberOfPoints="1289" NumberOfCells="2413">
<Points>
<DataArray  type="Float64"  NumberOfComponents="3"  format="ascii">0 0 0  0 0.41 0  2.2 0.41 0  2.2 0 0  0.1 0.1 0  0.1 0.3 0  0.8 0.3 0  0.8 0.1 0  0.25 0.2 0  0.248976 0.210065 0  0.245948 0.219718 0  0.241038 0.228563 0  0.234448 0.23624 0  0.226448 0.242432 0  0.217365 0.246888 0  0.207571 0.249423 0  0.197468 0.249936 0  0.187467 0.248404 0  0.17798 0.24489 0  0.169395 0.239539 0  0.162062 0.232569 0  0.156283 0.224265 0  0.152293 0.214968 0  0.150257 0.205058 0  0.150257 0.194942 0  0.152293 0.185032 0  0.156283 0.175735 0  0.162062 0.167431 0  0.169395 0.160461 0  0.17798 0.15511 0  0.187467 0.151596 0  0.197468 0.150064 0  0.207571 0.150577 0  0.217365 0.153112 0  0.226448 0.157568 0  0.234448 0.16376 0  0.241038 0.171437 0  0.245948 0.180282 0  0.248976 0.189935 0  1.1 0 0  1.1 0.41 0  0.1 0.2 0  0.45 0.1 0  0.45 0.3 0  0.55 0 0  0.275 0.1 0  0.275 0.3 0  0.275 0 0  0.55 0.41 0  0 0.205 0  0.825 0 0  0.825 0.41 0  0.275 0.41 0  0.1 0.15 0  0.1875 0.1 0  0.1 0.25 0  0.1875 0.3 0  0.132322 0.2 0  0.241426 0.253518 0  0.241426 0.146482 0  0.264574 0.17974 0  0.264574 0.22026 0  0.138434 0.187348 0  0.153372 0.150948 0  0.148413 0.164094 0  0.176495 0.136535 0  0.22768 0.143571 0  0.138434 0.212652 0  0.148413 0.235906 0  0.176495 0.263465 0  0.22768 0.256429 0  0.23125 0.3 0  0.24769 0.24094 0  0.23125 0.1 0  0.24769 0.15906 0  0.26253 0.193641 0  0.190482 0.137872 0  0.166753 0.146661 0  0.157737 0.244461 0  0.190482 0.262128 0  0.203107 0.261264 0  0.253635 0.22977 0  0.203107 0.138736 0  0.253635 0.17023 0  0.261028 0.206206 0  0.167707 0.251809 0  0.143629 0.224191 0  0.215302 0.2591 0  0.270465 0.245894 0  0.215302 0.1409 0  0.270465 0.154106 0  0.284052 0.202587 0  0.14375 0.3 0  0.209375 0.3 0  0.225966 0.278501 0  0.209375 0.1 0  0.225966 0.121499 0  0.211613 0.273759 0  0.211613 0.126241 0  0.143629 0.175809 0  0.1 0.175 0  0.133484 0.164832 0  0.144491 0.249539 0  0.1 0.225 0  0.133484 0.235168 0  0.3625 0.3 0  0.25691 0.253381 0  0.25691 0.146619 0  0.277205 0.188698 0  0.184724 0.275712 0  0.237372 0.268285 0  0.184724 0.124288 0  0.237372 0.131715 0  0.197578 0.273149 0  0.193656 0.286994 0  0.197578 0.126851 0  0.193656 0.113006 0  0.122953 0.187671 0  0.118362 0.153758 0  0.155372 0.258107 0  0.122953 0.212329 0  0.118362 0.246242 0  0.276394 0.27264 0  0.276394 0.12736 0  0.280965 0.170013 0  0.253125 0.3 0  0.14375 0.1 0  0.253125 0.1 0  0.269489 0.26014 0  0.269489 0.13986 0  0.303639 0.184297 0  0.165625 0.3 0  0.134742 0.273113 0  0.257831 0.274737 0  0.255279 0.128499 0  0.3625 0.1 0  0.165625 0.1 0  0.162031 0.132368 0  0.134955 0.126405 0  0.149334 0.125568 0  0.142936 0.139597 0  0.12695 0.140259 0  0.242514 0.285501 0  0.242514 0.114499 0  0.1 0.125 0  0.117483 0.12555 0  0.11154 0.139776 0  0.121875 0.1 0  0.109143 0.1125 0  0.126805 0.114 0  0.220313 0.29129 0  0.351562 0.287369 0  0.207222 0.2866 0  0.220312 0.10871 0  0.1375 0 0  0.20625 0 0  0.207222 0.1134 0  0.11722 0.17118 0  0.1 0.1625 0  0.0778409 0.16875 0  0.0862762 0.15625 0  0 0.15375 0  0 0.1025 0  0.11722 0.22882 0  0.1 0.2375 0  0 0.3075 0  0.0862762 0.23125 0  0.0598995 0.222547 0  0.0860223 0.2125 0  0.289584 0.181469 0  0.300267 0.16446 0  0.163832 0.269071 0  0.149597 0.273325 0  0.1 0.275 0  0.268498 0.285953 0  0.31875 0.3 0  0.294154 0.254672 0  0.296875 0.3 0  0.293558 0.271845 0  0.285095 0.286799 0  0.324298 0.264316 0  0.307866 0.263745 0  0.317093 0.234901 0  0.315485 0.281219 0  0.316547 0.250625 0  0.344693 0.243731 0  0.331592 0.251147 0  0.35129 0.270663 0  0.338689 0.263683 0  0.340625 0.3 0  0.249849 0.264383 0  0.265097 0.11422 0  0.284688 0.156136 0  0.242188 0.324017 0  0.0856613 0.2625 0  0.132812 0.0612217 0  0.264062 0.0612217 0  0.198437 0.07598340000000001 0  0.0860223 0.1375 0  0.0794526 0.191089 0  0.285228 0.140397 0  0.298655 0.148737 0  0.31875 0.1 0  0.327335 0.15374 0  0.296875 0.1 0  0.312289 0.155283 0  0.313348 0.135607 0  0.321802 0.173916 0  0.298433 0.134116 0  0.112124 0.2625 0  0.127526 0.259083 0  0.121875 0.3 0  0.0682687 0.241503 0  0.1 0.2875 0  0.117762 0.28125 0  0.107813 0.3 0  0.103906 0.313849 0  0.0778409 0.28125 0  0.1375 0.41 0  0.0862762 0.29375 0  0.08886860000000001 0.24375 0  0.307812 0.338778 0  0.307812 0.292227 0  0.33216 0.279164 0  0.387888 0.266414 0  0.264063 0.31948 0  0.110937 0.07598340000000001 0  0.242188 0.07598340000000001 0  0.319914 0.11839 0  0.340625 0.1 0  0.334448 0.133793 0  0.329687 0.108539 0  0.346259 0.118491 0  0.360334 0.173636 0  0.327539 0.205033 0  0.132812 0.288712 0  0.362436 0.278836 0  0.368105 0.259418 0  0.4125 0.41 0  0.329687 0.324017 0  0.329687 0.292306 0  0.285938 0.318952 0  0.417187 0.338778 0  0.324481 0.14148 0  0.351562 0.106771 0  0.40625 0.1 0  0.341028 0.168342 0  0.319221 0.190479 0  0.335292 0.184501 0  0.305563 0.20794 0  0.220313 0.31948 0  0.132812 0.332772 0  0.0865876 0.311259 0  0.0598995 0.302453 0  0.0906541 0.343255 0  0.353543 0.255837 0  0.36574 0.237633 0  0.405007 0.254279 0  0.275795 0.352123 0  0.4125 0 0  0.35493 0.137394 0  0.366563 0.120618 0  0.35917 0.205246 0  0.198438 0.318952 0  0.0626109 0.263892 0  0.40625 0.3 0  0.354809 0.155936 0  0.386512 0.146872 0  0.373101 0.159939 0  0.384375 0.1 0  0.343394 0.19929 0  0.350682 0.185683 0  0.368101 0.189748 0  0.344016 0.221511 0  0.391108 0.213329 0  0.376279 0.204783 0  0.398843 0.182768 0  0.375804 0.222746 0  0.390665 0.196958 0  0.394004 0.23518 0  0.359883 0.222828 0  0.419908 0.204359 0  0.404243 0.204783 0  0.412615 0.224526 0  0.20625 0.41 0  0.165625 0.325257 0  0.0347982 0.244954 0  0.379558 0.247154 0  0.34165 0.147603 0  0.372264 0.136992 0  0.388988 0.121989 0  0.373437 0.108554 0  0.351562 0.31948 0  0.391367 0.16527 0  0.399572 0.223324 0  0.452011 0.227371 0  0.40877 0.239392 0  0.431491 0.237337 0  0.421224 0.250459 0  0.449619 0.262098 0  0.418865 0.276779 0  0.437063 0.252274 0  0.415673 0.263227 0  0.430988 0.266772 0  0.402767 0.273419 0  0.452967 0.244883 0  0.428125 0.3 0  0.408502 0.286186 0  0.384375 0.3 0  0.392267 0.285807 0  0.465927 0.219339 0  0.43489 0.283846 0  0.376424 0.286289 0  0.625 0.3 0  0.473533 0.205186 0  0.461713 0.255517 0  0.5375 0.3 0  0.465725 0.235405 0  0.44631 0.201425 0  0.471875 0.3 0  0.494307 0.227729 0  0.459448 0.206736 0  0.462294 0.180792 0  0.478933 0.227536 0  0.486793 0.21381 0  0.486322 0.251373 0  0.50065 0.215318 0  0.54005 0.175389 0  0.474633 0.189893 0  0.512916 0.208697 0  0.49531 0.199967 0  0.475889 0.175275 0  0.625 0.1 0  0.459311 0.153933 0  0.513645 0.242704 0  0.392892 0.248539 0  0.374815 0.271913 0  0.365974 0.14871 0  0.395312 0.109184 0  0.417061 0.123981 0  0.483196 0.277003 0  0.381967 0.179632 0  0.429898 0.219374 0  0.433473 0.206165 0  0.43149 0.181038 0  0.444208 0.215487 0  0.472985 0.247309 0  0.49375 0.3 0  0.475579 0.262714 0  0.49916 0.274293 0  0.501175 0.184809 0  0.514164 0.225681 0  0.543648 0.214977 0  0.5341630000000001 0.23481 0  0.527396 0.216171 0  0.5375 0.1 0  0.534548 0.202315 0  0.561545 0.192513 0  0.5494289999999999 0.201221 0  0.570923 0.218346 0  0.412582 0.149833 0  0.489327 0.264745 0  0.502439 0.254775 0  0.462391 0.271166 0  0.496775 0.241732 0  0.5294410000000001 0.268606 0  0.482812 0.291099 0  0.46879 0.285038 0  0.452663 0.284065 0  0.51789 0.257882 0  0.53408 0.252026 0  0.560142 0.243543 0  0.545708 0.243474 0  0.547532 0.229019 0  0.55282 0.265323 0  0.398971 0.153424 0  0.400349 0.135684 0  0.410135 0.168145 0  0.428823 0.161323 0  0.415266 0.183779 0  0.329687 0.0810483 0  0.395312 0.0612217 0  0.373437 0.318952 0  0.439062 0.324017 0  0.561816 0.229354 0  0.585029 0.239287 0  0.431827 0.139854 0  0.446796 0.168929 0  0.351562 0.07598340000000001 0  0.395313 0.318944 0  0.54337 0.150762 0  0.460937 0.31948 0  0.418412 0.137529 0  0.428125 0.1 0  0.442783 0.152332 0  0.450742 0.134294 0  0.373437 0.0805201 0  0.384383 0.342558 0  0.482812 0.318952 0  0.429239 0.127457 0  0.444274 0.117405 0  0.426548 0.113815 0  0.49375 0.1 0  0.488954 0.113984 0  0.457973 0.121842 0  0.471621 0.137346 0  0.515625 0.325257 0  0.48125 0.41 0  0.417187 0.07598340000000001 0  0.496363 0.126778 0  0.479043 0.155715 0  0.439062 0.0805201 0  0.481795 0.126919 0  0.471875 0.1 0  0.489227 0.142159 0  0.515625 0.1 0  0.520062 0.147117 0  0.501244 0.161791 0  0.505431 0.112984 0  0.505344 0.14029 0  0.526563 0.119081 0  0.5181750000000001 0.131908 0  0.539868 0.136937 0  0.460937 0.108383 0  0.474242 0.114415 0  0.460937 0.0810483 0  0.487841 0.167168 0  0.526563 0.0612217 0  0.526563 0.106406 0  0.537619 0.112743 0  0.58125 0.1 0  0.559375 0.1 0  0.482812 0.08105569999999999 0  0.471883 0.0587655 0  0.570312 0.129396 0  0.548437 0.07598340000000001 0  0.504687 0.08105569999999999 0  0.49375 0.0470127 0  0.570312 0.112663 0  0.592798 0.12103 0  0.553986 0.12103 0  0.570312 0.0805201 0  0.48125 0 0  0.114787 0.2 0  0.160769 0.284765 0  0.175816 0.288361 0  0.162602 0.116048 0  0.154687 0.07598340000000001 0  0.176562 0.0805201 0  0.0598995 0.147547 0  0.307812 0.109924 0  0.291279 0.117157 0  0.278491 0.112989 0  0.285937 0.07598340000000001 0  0.307812 0.0805201 0  0.296928 0.196743 0  0.318141 0.218507 0  0.330208 0.227509 0  0.301397 0.225668 0  0.302706 0.241401 0  0.292574 0.21424 0  0.282762 0.230935 0  0.284351 0.244775 0  0.269553 0.23261 0  0.278572 0.217242 0  0.226924 0.342606 0  0.446928 0.185396 0  0.515625 0.3 0  0.504687 0.288879 0  0.515256 0.276534 0  0.529479 0.285328 0  0.58125 0.3 0  0.541969 0.272936 0  0.559375 0.3 0  0.556796 0.282529 0  0.543473 0.287206 0  0.581429 0.267774 0  0.566728 0.271171 0  0.570869 0.255585 0  0.577404 0.283865 0  0.603125 0.3 0  0.597531 0.28035 0  0.570312 0.338778 0  0.592188 0.292492 0  0.603513 0.256094 0  0.614063 0.286265 0  0.610329 0.27064 0  0.632708 0.251285 0  0.657223 0.261594 0  0.618789 0.257807 0  0.614188 0.22987 0  0.630935 0.265614 
[...]
<PointData  Scalars="p"> 
	<DataArray  type="Float64"  Name="p"  format="ascii">
0.0005301198719561558 0.0004753686184005351 -3.661945035504269e-07 -9.673474096940647e-07 0.0005799116726085486 0.0005402888823761463 9.003270230330539e-05 0.00027561274782189333 -0.0003015707042029579 -0.0003329790893882991 -0.0003501909366573675 -0.00035899292868232097 -0.0003830242710660358 -0.0004441641349761095 -0.0005549866814183412 -0.0007142083038544047 -0.0008378036914775967 -0.0010277543564608323 -0.0007807302278616637 -0.0003799538077738842 0.0001760778007357516 0.0008721463080739865 0.001431482165395249 0.0017968740107913363 0.0018184871275204967 0.0014960399842811334 0.0009782947390641493 0.00031778837767023005 -0.0003293947135622966 -0.0006379181516736938 -0.0008516584699385096 -0.0007528109239419282 -0.0006448751480087331 -0.0005214635617290253 -0.0004279626664091735 -0.0003719205621206925 -0.0003203419746863232 -0.00028850888266993756 -0.0002811450349770489 4.727077655462037e-05 0.000210284507913475 0.0011947066964547422 0.00011217035655170219 0.00014153146218618678 9.649703668571643e-05 -3.919140504316537e-05 -0.0001596046660505601 0.0001803748479051911 0.00027888483890732877 0.000797183204278553 0.0002727116712255255 0.0001177072660157107 0.0001233661518625541 0.0008795528180470319 9.415018966240251e-05 0.0008466677933113075 6.17870248489145e-05 0.0016168198224297933 -0.00035889556258617136 -0.0003593020174573908 -0.00029808043813829213 -0.00033664426205563835 0.001585819613322511 0.00040525691457626747 0.0008192791376474632 -0.00027484354763445475 -0.0004331771089792118 0.001559461796462045 0.000725778720777192 -0.00035807995221879304 -0.0004540014730487022 -0.00010002181266474425 -0.0003425974460857983 -5.46447376414995e-05 -0.0003446567676369791 -0.0002988938962474157 -0.0005533094901568176 -0.00011790166205464892 0.00017858759643067993 -0.0006674872731425214 -0.0006695373204117776 -0.00033746408993823556 -0.000592717319304322 -0.0003159805887408769 -0.00031830681694057034 -0.0002751270673053884 0.0011845257337918633 -0.0005565317855541674 -0.00031931848218796883 -0.0005069723445269849 -0.0003095858924715613 -0.00033356797588982457 0.000373614432785542 -6.91922847098729e-05 -0.00032002350339120964 7.6070247935676415e-06 -0.000264317009215237 -0.00042254621382731506 -0.0003617919281452493 0.0012526190907629004 0.0010830467757162187 0.0010940797433418026 0.0005480707484980186 0.0010819127315127488 0.0010560810107669383 -0.00015679955125141753 -0.00031483435356829346 -0.0003344145453172632 -0.00030016281885060085 -0.00023052309357867766 -0.0003805264587381989 -0.00016361193987388608 -0.00035550925488145557 -0.0003731173123062706 -0.00011939791926816273 -0.00029145713467240724 -6.016089091654793e-05 0.001411498662880048 0.000942240622891477 0.00025302612369553716 0.0013863946432315275 0.0009053187855673611 -0.0003205986892511311 -0.00021594141820648166 -0.00028982469064747963 -0.00014522200510101957 0.0004105778162397522 -5.798631518950022e-05 -0.0003214959885748418 -0.0002905244227057115 -0.0002939342855958908 0.00021726494234597087 0.0005355466725983337 -0.0003196334441748055 -0.0002763311983161475 0.00013515070616101828 0.00028228643722737646 0.00019005018151604805 0.0005626983743650297 0.00041343654905369145 0.0005064220271135282 0.0007185377443413954 -0.0002405226587733084 -0.0001808279479343666 0.0006930109793161811 0.0006574956633236337 0.0007796406638041354 0.0005220634541527916 0.0006072417455461541 0.0005558437419138346 -0.0001607545012463176 -0.0002984058343009397 -0.00021637081742217223 -0.00011672485101193631 0.0004473077696928967 0.0002958032139806909 -0.00014092509832945094 0.0011500235140236993 0.000979349386754865 0.0009386618457429807 0.0008871003362012026 0.0007432721520006082 0.0006131383223794213 0.001119664610278135 0.0009726844130074189 0.0005535628442319205 0.0009391046893708013 0.0008813439901050371 0.0010404227120121047 -0.0002926523350132665 -0.00023054567319648559 5.520805636356894e-05 0.00032923128873621824 0.0006585427133462314 -0.00025522013091487807 -0.0002000088545613043 -0.0004121388838465206 -0.00020222113886882281 -0.0003922761406191757 -0.00027931233170772226 -0.0005338795318481616 -0.00046725577696229726 -0.000549841207532955 -0.0003859449061740979 -0.0005417039764462867 -0.0006678658298287766 -0.0006147641093888846 -0.00047452655504434503 -0.0005516173116378425 -0.00022313332506855736 -0.00033136872688838517 -0.0001645252640393885 -0.0002688715944668924 3.8763117662566425e-05 0.0007541541474281478 0.0004407354793553867 0.00012677551291301456 0.00021124294631792592 0.0007645264340051338 0.0010091659731429822 -0.0002358753139193515 -0.00019513376269519991 4.925771229206366e-05 -5.96757534597069e-05 -1.4699689770504855e-05 -0.00014529644947598345 -7.195830690231211e-05 -0.00020310956088914363 -0.00015037482406728787 0.0007275428649933611 0.0006720181699486027 0.00048471207968615843 0.0008275133173188459 0.0006027923485623385 0.0005756220249478601 0.0005181902456512366 0.0004908168188864548 0.0006348355126186103 0.000402874414181949 0.0005834472654519664 0.0008801872172418915 -3.870955773178503e-07 -0.0002808496584024785 -0.0004120249975806548 -0.0002586991322269962 -3.3404903841897994e-05 0.0005089460254843742 0.000100729621529613 3.294757212120135e-06 9.319683070220388e-05 4.6960808332024055e-05 5.731072023485888e-05 0.00010369082087852301 -7.236969864877369e-05 -0.00046344895744286564 0.00045416754106735515 -0.00033188278425342975 -0.0004894590111350895 5.62010576400272e-05 -5.830305284005532e-05 -0.0002964505001792868 -6.725626026574977e-05 4.517471938533958e-05 -2.8954572505604895e-05 0.00011377702197487723 0.00014392975720368216 -8.9026977368834e-05 -0.0003305669884397842 -0.0002655600679930381 -0.00041021872637905506 3.653837706204188e-05 0.0004072143544849723 0.0005269226884552162 0.000565971951031329 0.0004622172594059394 -0.0005917316245633363 -0.0006319959286767399 -0.00017253342083020756 8.986311577205473e-05 0.00018498493001058405 0.00012611454576882117 0.00014777796754287297 -0.0004945803567227152 0.00014500368613496289 0.0007139187677070019 -4.522265648410527e-06 6.017698347883256e-05 0.00016296369501655791 9.587235826646488e-05 0.00014754064587704422 -0.00043131878336235874 -0.00025119635918750897 -0.0002654361222133721 -0.0006307125870730173 -0.00037225251000784574 -0.00042171372811395915 -5.1069185580884924e-05 -0.0005578922469740537 -0.00025232310474593354 -0.00037548489100338754 -0.0006338676564193463 -0.0001072373023238662 -0.00022515511333626856 -0.0001799944691873734 0.0002692155291891162 0.0002770975379524991 0.000745460789760216 -0.0004863240033447685 4.361165863691185e-05 0.00016227060585182685 0.00015458252887616468 0.00014014272697339465 -7.721322039372286e-05 9.096337348665286e-05 -0.0003163901293792052 0.00011224886617954408 -0.00018321424968322184 3.258690861357294e-05 -1.2498322144950767e-05 0.00018739729297413753 2.245900823962657e-05 0.0001085510102355096 -3.2008819068174236e-05 8.165414328733302e-05 -9.999884306148357e-05 0.00018195770273157847 7.449773148107463e-05 -3.210574412268788e-05 -0.00010048970837479462 -0.00011022439468065577 8.8151815896214e-05 0.00011103784575820352 -0.00020883199774255173 0.0003065748314038847 -6.808635540572107e-06 0.00023279794264898423 0.0003125427273228408 0.0001818693843209658 -1.6256620305954746e-06 0.00020504305875980442 0.00011794880771042887 1.9752211456909874e-05 -8.075772006010018e-05 0.00014500168295852867 2.2501291816262635e-05 0.0002739198358850348 1.36493205247862e-05 -2.3111830689410975e-05 -9.363987978701582e-05 -3.761446020481432e-05 -9.216381064378649e-05 -0.0001382090917761041 7.238299919773233e-05 -8.587065881234332e-05 0.0002035881274784699 -0.00032044129105994294 -0.0003262322256671574 0.0001275666643434011 0.00014523277113703378 9.987486577365634e-05 0.00028140786060915134 -7.522764337809119e-05 -3.326119574724879e-05 -3.7741939154607005e-05 1.0698950486795022e-05 2.946013379083995e-05 0.0002464163992390897 0.00025225239391711297 0.00027700125709878 0.0003133969255818816 -0.00015945588385463068 8.248011611693888e-05 7.031662464791508e-05 0.0001543624421078954 3.391355050762976e-05 8.495657369908229e-05 -1.448164541575263e-05 7.539346279744777e-05 4.6585185921979556e-05 0.00015235237776635983 0.00011612869259680744 0.0002993877082364006 0.00028327671994231155 0.00023348107375803623 0.00021982111495746548 0.00030964075050489095 0.0002517579480525813 0.00023063453809009444 0.0001785895628716529 0.000289358819487881 0.0002441453067808848 0.0002215582740214155 0.00020820995275761824 0.00014177695242604703 0.0002930471783220554 0.00013636416209960672 0.00014469904455662258 7.59303346876359e-05 4.994961401048089e-05 -8.170985206667478e-06 0.00010286560456573971 0.00018348958865826667 -5.4659738587709784e-05 8.788897200916281e-05 0.0001718204413274899 0.00022070640597056759 4.032793298336432e-05 -2.3850903999663836e-05 0.00013750933499208576 -3.4739279843233165e-06 2.4053323747358903e-05 0.00014073629611626392 9.411217162994116e-05 0.00012425634919934858 -1.123385296677287e-05 -1.488886739769396e-05 0.0001533276440399139 1.8045037970068578e-05 0.00018968972139302208 5.8961475968245164e-05 5.307694456765445e-05 9.090299885325399e-05 9.747260813588309e-05 4.017578094162595e-05 1.3028787505527028e-05 -7.090997287311214e-05 0.00024230633641234914 0.0001273483598482734 0.00018314701998218037 -7.815610649864312e-06 -0.00013735251788905668 0.00016116052261835607 -1.98296138331854e-05 0.0001032030377618583 -9.18837648680876e-05 9.34889090036985e-05 -4.454592395947399e-05 -0.00015254684956404724 5.945973893260774e-05 -5.7982013653386007e-05 5.0459264312284515e-05 3.9094312318157305e-06 3.856476584187002e-05 6.658910594172556e-05 4.2175080822395795e-05 0.00015184517921282287 -0.0001656678093819379 0.00012255669375193108 7.425970435944238e-05 7.161132674991039e-05 6.014127512848732e-05 6.828778515557709e-05 0.00015289760621605943 0.00017976316700224417 7.75428920870028e-05 8.141653787353396e-05 0.00013058313874118264 0.00017174733760141772 7.263484696934425e-05 7.74800781278513e-05 6.839739383610628e-05 5.4173052536429686e-05 0.00016621981929835624 0.0013642873948128966 0.00021713717414866167 3.1135853161095034e-05 0.0002312553867828605 0.00037600503812096033 0.00027332331257525204 0.0007874107079007784 -1.5027759476999465e-05 -0.00010393852055428702 -0.00011483947979220056 7.552562981098984e-05 7.524112322853746e-05 -0.0003396034321710489 -0.0005095207841790135 -0.0006103803946236174 -0.00044742382576273273 -0.00046198336592575103 -0.0003873994308420141 -0.0003717440200730636 -0.00036909538362216046 -0.0003385395993988181 -0.00035334868748147736 0.0001531801507740831 -2.652752502190208e-05 0.00028924042346622613 0.0002968490874351618 0.00031886552351494525 0.00032252404424151164 0.000327616267030579 0.00031454034993078236 0.00032068155214801916 0.0003205754206983048 0.0003206702211406613 0.0002909437655736181 0.00030029832961650716 0.0002582599544607619 0.00032046081637182594 0.00032193009182798066 0.000305317632391368 0.00032709240901206496 0.00032045321604488186 0.00024658473514493635 0.00029982649023837626 0.0002765655653761038 0.00018567356267754458 0.00014800691216623448 0.0002316222041888675 0.00016962244756531765 0.00023448478856236894 0.00019132911052026024 0.00025561062914148064 9.746687793032844e-05 0.0001800639079475645 0.00027130561293883495 0.0002171788880851047 0.0002839702550147153 0.00018904460208882013 0.000304501586930739 0.00033837444146137615 0.00027940057172830995 0.000253888249305751 0.0002395145281972877 3.096854146823226e-05 0.0002709990756509875 0.0003482402144957726 9.532308475400553e-05 0.00023198981300092704 -6.074083325850578e-06 0.00019460028542549797 0.00013459513390308244 1.251806675373249e-05 7.188894845743393e-05 -0.0001248278601217117 0.00013787334564346966 6.558076330779653e-05 -5.3373286982306156e-05 -8.666237056000733e-06 0.00011682515450039741 -3.4415380769352134e-06 -9.644110725457064e-06 -0.00012373761099071918 4.012147385598617e-05 8.195423863562537e-05 3.138111861256696e-05 0.00014240264606063885 0.00011407122419438388 0.0001504896817148937 -6.31569094864581e-05 0.00010172048615682531 0.00010113259681655103 0.00012544869672122673 0.00011115577298991705 8.542135352241697e-05 7.397401337582781e-05 7.323294122614797e-05 7.725054011596368e-05 9.475681877150096e-05 8.26452341120103e-05 -3.501736661466107e-05 7.943199405861445e-05 0.00010058739446866451 0.00010220686154531579 8.83145925647815e-05 8.760865189070757e-05 8.081429117373926e-05 8.928700629596512e-05 8.651000288619132e-05 9.9617929259404e-05 0.00011197084314966246 0.0001742254161004091 0.0003291418518144551 0.0003016563200172125 0.00015217137723741046 -0.00014245153283950565 7.974968768053448e-05 5.1835689055057046e-05 8.521636885701952e-05 0.0001060697500042408 0.00032046577067312235 5.302570584071383e-05 0.00024174604540015774 2.3861142640219214e-05 4.037838989809759e-05 7.714078263855493e-05 7.381090908877935e-05 0.0001132919109203696 0.0003469435376919474 0.00018457216649857557 9.708679529451648e-08 8.22445062933446e-05 -9.770355324497859e-06 7.183042863697746e-05 9.836057117453738e-05 0.00010197422738840064 8.70569901795979e-05 6.398176998312321e-05 7.449761778668493e-05 7.682694930019833e-05 -8.521326221328204e-05 -7.703334022349466e-05 -0.00015371407834277327 -0.00017307440072453364 0.0001289227648171628 0.00021806279427541355 6.643610071122496e-05 -0.00011628075270495645 -6.105808160408727e-05 -0.00014718075722479034 -8.173011644039094e-05 -0.0001656517083303407 2.7364823575228845e-05 -4.180021835604361e-05 -1.2133258906731507e-05 -0.0001173922379104057 -0.00012616436672882754 -0.00010460042102885597 -3.9825306031534484e-05 -8.960466259205351e-05 -3.820264330918899e-05 0.00010595376149296407 4.285380495781178e-06 8.710527642255101e-05 0.00020653047917972554 1.1936707143939973e-05 5.933714454933822e-05 4.896415278587113e-05 -1.7522574310720572e-05 9.696943295715059e-05 9.01654404315688e-05 7.482325733960116e-05 8.94263040915756e-05 8.910535275978907e-05 0.00011946995663378712 0.00010412201612257133 0.0001333870094406738 0.00010810168478270567 0.00010064127937222117 9.713273854265206e-05 0.00011075595146627014 0.00011185480590726153 0.00010303401763288075 0.00010291182105575578 9.892201697598872e-05 9.065112552609544e-05 8.778633085593435e-05 9.9815452668766e-05 9.20885482163388e-05 6.262625466852056e-05 8.248538421787416e-05 8.307825835334312e-05 9.980844685623137e-05 8.817387318532779e-05 4.818829226682473e-05 0.0001140467338099309 7.601266489672439e-05 9.209477897852604e-05 6.5852160555768e-05 4.2116197643450334e-05 7.267167574917916e-05 8.465659336637911e-05 6.242153724119488e-05 4.925616250811876e-05 4.6403216500105674e-05 0.00010350444508229447 0.00010252501604478315 8.951607032304084e-05 0.00014838126163332698 5.626394065756932e-05 8.904336257175767e-05 5.1015221141371896e-05 4.7075987285879216e-05 8.495877699466785e-05 9.172236425186764e-05 0.00016018080567218394 6.895259205245735e-05 0.00015336552256579538 0.00014340225688966876 0.0001089729504388984 0.00012188821022083105 0.00023094608660842718 0.00017069721782259927 0.00018974826719385987 0.0002495761223408 0.0001574907523068308 0.00017369037199647822 0.0002505743650363898 0.00024153265430787712 0.0002091576281230504 0.0002533999218019044 0.000244441620429225 0.0002687152088528098 0.0002230766696026826 0.0002180959228469456 0.00016200426601677327 0.00011678232814420616 0.00015853780265002047 0.0001863018577309643 7.99721292112154e-05 0.00014233025916998438 0.00012732012937084124 8.052064568775643e-05 9.645553703808314e-05 5.215364194239124e-05 9.837580681422283e-05 2.889585490370695e-06 5.443939636714813e-05 0.0001519334728077907 0.00015699257635071596 -0.0001049499247698472 -0.00013004523670802698 -0.00010528327308949973 -3.7985806548008404e-05 -8.533545043363204e-05 -2.8879830091073653e-05 2.471084522006013e-05 9.960925242064584e-05 0.00020307080485007685 0.00011894276873530164 0.0003475105639652899 0.00015514548318729156 9.216894312174894e-05 0.00020683983201886245 0.000169072842736377 -9.266742712405897e-05 -7.119737180600295e-05 0.000349596856092725 0.00015780475012527252 3.3568023138030745e-05 0.00020289630499227635 4.630415512544388e-05 0.00010742623068589871 5.896232625930911e-05 0.00013590076826331716 5.1174083902866474e-05 1.2697239108268458e-06 0.00013406394256038876 0.0001404843118250279 0.00011672244392810719 0.0001099267264165513 6.365242920844382e-05 0.00020391470775294246 0.0002951281170078032 0.00019368514386508467 0.0001965681156133053 0.0001589537584129291 0.00018501199283870514 0.00017858521738224302 0.00036658545103063266 0.0006439512107605298 0.000500246529303871 0.00025297294862994284 0.00010854901559439219 0.00011777276870910436 0.000112798767172049 0.00016980813618633329 0.00014117289261236058 0.00012159002263188278 0.0001632164893672707 0.0001671668300144728 0.00012127937974863595 0.00020093165757004622 0.00028916156588360914 0.0005161621215130645 0.000464397179364359 0.0004781595833891233 0.00018550661712329772 0.00017100777462160805 0.0004905024614271406 0.0004634234828486114 8.164018123058943e-05 0.0007015925656662338 0.00013400453775919174 5.1427908482787866e-05 0.0003103497244627077 0.00016910298633261445 0.0003573116268224161 0.0005215027678365328 0.00019103835910613413 0.00020783478141167343 0.00010972002865681439 0.000421047521968459 0.00024050847765057633 0.0006270753497213842 0.00023822200731549433 0.00023523818181582333 0.00019363731605727608 0.0005431394814505957 0.0001370128627757863 8.867323678041848e-05 0.00026062620263518204 0.00021374180456506682 0.00019285562402539136 7.33743422865397e-05 0.0002859713839315572 0.00027312605146580563 0.00023684681781872352 0.00018389150523920688 0.00018118156430587415 0.00014863272044210324 0.00046709499572395076 4.691016959229706e-05 0.0003100995718597328 0.00044252430273708385 0.0006508066185044015 0.00018173681217968757 0.00019458871650735552 7.96466149570064e-05 0.00020929306957640523 0.0008198308086668902 0.0005397094650574029 0.00024624764766820135 0.0007309686296167211 0.00018538724998012627 0.00011101699033893442 0.0005647106763048913 0.0002217231187684074 0.00024584719706619994 0.0002042496678441145 0.0005260651983640216 0.00011776882103299592 0.000531250082435596 0.0005257356027829714 0.00026786544662869117 8.23136285577273e-05 -0.00020438924538537098 0.00017741684146533405 0.0001535306409209148 -3.0089870709492302e-05 0.0001394959867874608 4.750146961505842e-05 9.212360092250247e-05 0.00011963201846899567 1.5268873050683807e-05 9.068247145954115e-05 -8.200104104728298e-05 1.763653974613428e-05 1.6486228030979232e-05 4.952288770483608e-05 0.00013794224079425257 8.41115954365167e-05 9.515939863315433e-05 -2.144170566051616e-05 6.071210245578945e-05 0.0003224431661504576 0.00010447727202175032 7.567335078803736e-05 0.00010631632639661101 9.28796798280941e-05 0.00010889961360789148 6.6675641396421e-05 9.810843765570828e-05 -5.8483447441746213e-05 0.00013608572000143123 0.0001680207781768574 0.0001312987651659945 0.0001349643556693738 0.0003354709318954824 0.0004884377077542569 0.0004527397786188068 0.0005115971409541619 6.476593345359256e-05 4.898488132404356e-05 0.0003437860900351254 0.0004811710143209083 0.00037850951136541796 0.00025825179269379784 0.00017790913723768584 0.00044928066600821405 0.00011590482454960505 0.0008108104615363952 0.0007874507752399 0.00022148584062056244 0.00024718907211484375 0.0002751567757444336 0.0002630933819822806 -4.113324222057527e-05 7.508084058893396e-06 -0.00013627019455649276 3.9574662794438715e-05 0.00019499964671668908 0.00011792504856852716 0.00010007844377579957 8.889568312271341e-05 2.707253481538345e-05 8.257847131645858e-05 0.00010154311202742155 0.0001274247736495984 6.267319760620523e-05 -4.888148775910831e-05 0.0002143346316090663 3.213396239805077e-05 0.00015777479763228594 0.0002062716961250733 0.00024362731379277942 0.00020388177351432212 0.00024072999347792728 0.0002481700177098829 0.0002768067789543041 -0.0001730