<?xml version="1.0"?>
<VTKFile type="UnstructuredGrid"  version="0.1"  >
<UnstructuredGrid>
<Piece  NumberOfPoints="1289" NumberOfCells="2413">
<Points>
<DataArray  type="Float64"  NumberOfComponents="3"  format="ascii">0 0 0  0 0.41 0  2.2 0.41 0  2.2 0 0  0.1 0.1 0  0.1 0.3 0  0.8 0.3 0  0.8 0.1 0  0.25 0.2 0  0.248976 0.210065 0  0.245948 0.219718 0  0.241038 0.228563 0  0.234448 0.23624 0  0.226448 0.242432 0  0.217365 0.246888 0  0.207571 0.249423 0  0.197468 0.249936 0  0.187467 0.248404 0  0.17798 0.24489 0  0.169395 0.239539 0  0.162062 0.232569 0  0.156283 0.224265 0  0.152293 0.214968 0  0.150257 0.205058 0  0.150257 0.194942 0  0.152293 0.185032 0  0.156283 0.175735 0  0.162062 0.167431 0  0.169395 0.160461 0  0.17798 0.15511 0  0.187467 0.151596 0  0.197468 0.150064 0  0.207571 0.150577 0  0.217365 0.153112 0  0.226448 0.157568 0  0.234448 0.16376 0  0.241038 0.171437 0  0.245948 0.180282 0  0.248976 0.189935 0  1.1 0 0  1.1 0.41 0  0.1 0.2 0  0.45 0.1 0  0.45 0.3 0  0.55 0 0  0.275 0.1 0  0.275 0.3 0  0.275 0 0  0.55 0.41 0  0 0.205 0  0.825 0 0  0.825 0.41 0  0.275 0.41 0  0.1 0.15 0  0.1875 0.1 0  0.1 0.25 0  0.1875 0.3 0  0.132322 0.2 0  0.241426 0.253518 0  0.241426 0.146482 0  0.264574 0.17974 0  0.264574 0.22026 0  0.138434 0.187348 0  0.153372 0.150948 0  0.148413 0.164094 0  0.176495 0.136535 0  0.22768 0.143571 0  0.138434 0.212652 0  0.148413 0.235906 0  0.176495 0.263465 0  0.22768 0.256429 0  0.23125 0.3 0  0.24769 0.24094 0  0.23125 0.1 0  0.24769 0.15906 0  0.26253 0.193641 0  0.190482 0.137872 0  0.166753 0.146661 0  0.157737 0.244461 0  0.190482 0.262128 0  0.203107 0.261264 0  0.253635 0.22977 0  0.203107 0.138736 0  0.253635 0.17023 0  0.261028 0.206206 0  0.167707 0.251809 0  0.143629 0.224191 0  0.215302 0.2591 0  0.270465 0.245894 0  0.215302 0.1409 0  0.270465 0.154106 0  0.284052 0.202587 0  0.14375 0.3 0  0.209375 0.3 0  0.225966 0.278501 0  0.209375 0.1 0  0.225966 0.121499 0  0.211613 0.273759 0  0.211613 0.126241 0  0.143629 0.175809 0  0.1 0.175 0  0.133484 0.164832 0  0.144491 0.249539 0  0.1 0.225 0  0.133484 0.235168 0  0.3625 0.3 0  0.25691 0.253381 0  0.25691 0.146619 0  0.277205 0.188698 0  0.184724 0.275712 0  0.237372 0.268285 0  0.184724 0.124288 0  0.237372 0.131715 0  0.197578 0.273149 0  0.193656 0.286994 0  0.197578 0.126851 0  0.193656 0.113006 0  0.122953 0.187671 0  0.118362 0.153758 0  0.155372 0.258107 0  0.122953 0.212329 0  0.118362 0.246242 0  0.276394 0.27264 0  0.276394 0.12736 0  0.280965 0.170013 0  0.253125 0.3 0  0.14375 0.1 0  0.253125 0.1 0  0.269489 0.26014 0  0.269489 0.13986 0  0.303639 0.184297 0  0.165625 0.3 0  0.134742 0.273113 0  0.257831 0.274737 0  0.255279 0.128499 0  0.3625 0.1 0  0.165625 0.1 0  0.162031 0.132368 0  0.134955 0.126405 0  0.149334 0.125568 0  0.142936 0.139597 0  0.12695 0.140259 0  0.242514 0.285501 0  0.242514 0.114499 0  0.1 0.125 0  0.117483 0.12555 0  0.11154 0.139776 0  0.121875 0.1 0  0.109143 0.1125 0  0.126805 0.114 0  0.220313 0.29129 0  0.351562 0.287369 0  0.207222 0.2866 0  0.220312 0.10871 0  0.1375 0 0  0.20625 0 0  0.207222 0.1134 0  0.11722 0.17118 0  0.1 0.1625 0  0.0778409 0.16875 0  0.0862762 0.15625 0  0 0.15375 0  0 0.1025 0  0.11722 0.22882 0  0.1 0.2375 0  0 0.3075 0  0.0862762 0.23125 0  0.0598995 0.222547 0  0.0860223 0.2125 0  0.289584 0.181469 0  0.300267 0.16446 0  0.163832 0.269071 0  0.149597 0.273325 0  0.1 0.275 0  0.268498 0.285953 0  0.31875 0.3 0  0.294154 0.254672 0  0.296875 0.3 0  0.293558 0.271845 0  0.285095 0.286799 0  0.324298 0.264316 0  0.307866 0.263745 0  0.317093 0.234901 0  0.315485 0.281219 0  0.316547 0.250625 0  0.344693 0.243731 0  0.331592 0.251147 0  0.35129 0.270663 0  0.338689 0.263683 0  0.340625 0.3 0  0.249849 0.264383 0  0.265097 0.11422 0  0.284688 0.156136 0  0.242188 0.324017 0  0.0856613 0.2625 0  0.132812 0.0612217 0  0.264062 0.0612217 0  0.198437 0.07598340000000001 0  0.0860223 0.1375 0  0.0794526 0.191089 0  0.285228 0.140397 0  0.298655 0.148737 0  0.31875 0.1 0  0.327335 0.15374 0  0.296875 0.1 0  0.312289 0.155283 0  0.313348 0.135607 0  0.321802 0.173916 0  0.298433 0.134116 0  0.112124 0.2625 0  0.127526 0.259083 0  0.121875 0.3 0  0.0682687 0.241503 0  0.1 0.2875 0  0.117762 0.28125 0  0.107813 0.3 0  0.103906 0.313849 0  0.0778409 0.28125 0  0.1375 0.41 0  0.0862762 0.29375 0  0.08886860000000001 0.24375 0  0.307812 0.338778 0  0.307812 0.292227 0  0.33216 0.279164 0  0.387888 0.266414 0  0.264063 0.31948 0  0.110937 0.07598340000000001 0  0.242188 0.07598340000000001 0  0.319914 0.11839 0  0.340625 0.1 0  0.334448 0.133793 0  0.329687 0.108539 0  0.346259 0.118491 0  0.360334 0.173636 0  0.327539 0.205033 0  0.132812 0.288712 0  0.362436 0.278836 0  0.368105 0.259418 0  0.4125 0.41 0  0.329687 0.324017 0  0.329687 0.292306 0  0.285938 0.318952 0  0.417187 0.338778 0  0.324481 0.14148 0  0.351562 0.106771 0  0.40625 0.1 0  0.341028 0.168342 0  0.319221 0.190479 0  0.335292 0.184501 0  0.305563 0.20794 0  0.220313 0.31948 0  0.132812 0.332772 0  0.0865876 0.311259 0  0.0598995 0.302453 0  0.0906541 0.343255 0  0.353543 0.255837 0  0.36574 0.237633 0  0.405007 0.254279 0  0.275795 0.352123 0  0.4125 0 0  0.35493 0.137394 0  0.366563 0.120618 0  0.35917 0.205246 0  0.198438 0.318952 0  0.0626109 0.263892 0  0.40625 0.3 0  0.354809 0.155936 0  0.386512 0.146872 0  0.373101 0.159939 0  0.384375 0.1 0  0.343394 0.19929 0  0.350682 0.185683 0  0.368101 0.189748 0  0.344016 0.221511 0  0.391108 0.213329 0  0.376279 0.204783 0  0.398843 0.182768 0  0.375804 0.222746 0  0.390665 0.196958 0  0.394004 0.23518 0  0.359883 0.222828 0  0.419908 0.204359 0  0.404243 0.204783 0  0.412615 0.224526 0  0.20625 0.41 0  0.165625 0.325257 0  0.0347982 0.244954 0  0.379558 0.247154 0  0.34165 0.147603 0  0.372264 0.136992 0  0.388988 0.121989 0  0.373437 0.108554 0  0.351562 0.31948 0  0.391367 0.16527 0  0.399572 0.223324 0  0.452011 0.227371 0  0.40877 0.239392 0  0.431491 0.237337 0  0.421224 0.250459 0  0.449619 0.262098 0  0.418865 0.276779 0  0.437063 0.252274 0  0.415673 0.263227 0  0.430988 0.266772 0  0.402767 0.273419 0  0.452967 0.244883 0  0.428125 0.3 0  0.408502 0.286186 0  0.384375 0.3 0  0.392267 0.285807 0  0.465927 0.219339 0  0.43489 0.283846 0  0.376424 0.286289 0  0.625 0.3 0  0.473533 0.205186 0  0.461713 0.255517 0  0.5375 0.3 0  0.465725 0.235405 0  0.44631 0.201425 0  0.471875 0.3 0  0.494307 0.227729 0  0.459448 0.206736 0  0.462294 0.180792 0  0.478933 0.227536 0  0.486793 0.21381 0  0.486322 0.251373 0  0.50065 0.215318 0  0.54005 0.175389 0  0.474633 0.189893 0  0.512916 0.208697 0  0.49531 0.199967 0  0.475889 0.175275 0  0.625 0.1 0  0.459311 0.153933 0  0.513645 0.242704 0  0.392892 0.248539 0  0.374815 0.271913 0  0.365974 0.14871 0  0.395312 0.109184 0  0.417061 0.123981 0  0.483196 0.277003 0  0.381967 0.179632 0  0.429898 0.219374 0  0.433473 0.206165 0  0.43149 0.181038 0  0.444208 0.215487 0  0.472985 0.247309 0  0.49375 0.3 0  0.475579 0.262714 0  0.49916 0.274293 0  0.501175 0.184809 0  0.514164 0.225681 0  0.543648 0.214977 0  0.5341630000000001 0.23481 0  0.527396 0.216171 0  0.5375 0.1 0  0.534548 0.202315 0  0.561545 0.192513 0  0.5494289999999999 0.201221 0  0.570923 0.218346 0  0.412582 0.149833 0  0.489327 0.264745 0  0.502439 0.254775 0  0.462391 0.271166 0  0.496775 0.241732 0  0.5294410000000001 0.268606 0  0.482812 0.291099 0  0.46879 0.285038 0  0.452663 0.284065 0  0.51789 0.257882 0  0.53408 0.252026 0  0.560142 0.243543 0  0.545708 0.243474 0  0.547532 0.229019 0  0.55282 0.265323 0  0.398971 0.153424 0  0.400349 0.135684 0  0.410135 0.168145 0  0.428823 0.161323 0  0.415266 0.183779 0  0.329687 0.0810483 0  0.395312 0.0612217 0  0.373437 0.318952 0  0.439062 0.324017 0  0.561816 0.229354 0  0.585029 0.239287 0  0.431827 0.139854 0  0.446796 0.168929 0  0.351562 0.07598340000000001 0  0.395313 0.318944 0  0.54337 0.150762 0  0.460937 0.31948 0  0.418412 0.137529 0  0.428125 0.1 0  0.442783 0.152332 0  0.450742 0.134294 0  0.373437 0.0805201 0  0.384383 0.342558 0  0.482812 0.318952 0  0.429239 0.127457 0  0.444274 0.117405 0  0.426548 0.113815 0  0.49375 0.1 0  0.488954 0.113984 0  0.457973 0.121842 0  0.471621 0.137346 0  0.515625 0.325257 0  0.48125 0.41 0  0.417187 0.07598340000000001 0  0.496363 0.126778 0  0.479043 0.155715 0  0.439062 0.0805201 0  0.481795 0.126919 0  0.471875 0.1 0  0.489227 0.142159 0  0.515625 0.1 0  0.520062 0.147117 0  0.501244 0.161791 0  0.505431 0.112984 0  0.505344 0.14029 0  0.526563 0.119081 0  0.5181750000000001 0.131908 0  0.539868 0.136937 0  0.460937 0.108383 0  0.474242 0.114415 0  0.460937 0.0810483 0  0.487841 0.167168 0  0.526563 0.0612217 0  0.526563 0.106406 0  0.537619 0.112743 0  0.58125 0.1 0  0.559375 0.1 0  0.482812 0.08105569999999999 0  0.471883 0.0587655 0  0.570312 0.129396 0  0.548437 0.07598340000000001 0  0.504687 0.08105569999999999 0  0.49375 0.0470127 0  0.570312 0.112663 0  0.592798 0.12103 0  0.553986 0.12103 0  0.570312 0.0805201 0  0.48125 0 0  0.114787 0.2 0  0.160769 0.284765 0  0.175816 0.288361 0  0.162602 0.116048 0  0.154687 0.07598340000000001 0  0.176562 0.0805201 0  0.0598995 0.147547 0  0.307812 0.109924 0  0.291279 0.117157 0  0.278491 0.112989 0  0.285937 0.07598340000000001 0  0.307812 0.0805201 0  0.296928 0.196743 0  0.318141 0.218507 0  0.330208 0.227509 0  0.301397 0.225668 0  0.302706 0.241401 0  0.292574 0.21424 0  0.282762 0.230935 0  0.284351 0.244775 0  0.269553 0.23261 0  0.278572 0.217242 0  0.226924 0.342606 0  0.446928 0.185396 0  0.515625 0.3 0  0.504687 0.288879 0  0.515256 0.276534 0  0.529479 0.285328 0  0.58125 0.3 0  0.541969 0.272936 0  0.559375 0.3 0  0.556796 0.282529 0  0.543473 0.287206 0  0.581429 0.267774 0  0.566728 0.271171 0  0.570869 0.255585 0  0.577404 0.283865 0  0.603125 0.3 0  0.597531 0.28035 0  0.570312 0.338778 0  0.592188 0.292492 0  0.603513 0.256094 0  0.614063 0.286265 0  0.610329 0.27064 0  0.632708 0.251285 0  0.657223 0.261594 0  0.618789 0.257807 0  0.614188 0.22987 0  0.630935 0.265614 
[...]
<PointData  Vectors="v"> 
	<DataArray  type="Float64"  Name="v"  NumberOfComponents="3" format="ascii">
0.0 0.0 0.0 0.0 0.0 0.0 0.0 0.0 0.0 0.0 0.0 0.0 0.797383978449313 -0.18886197014359926 0.0 0.8413361633361441 0.19859578281304416 0.0 1.0249458628210713 -0.03325715264263988 0.0 0.969101495768043 0.027256399549995373 0.0 0.0 0.0 0.0 0.0 0.0 0.0 0.0 0.0 0.0 0.0 0.0 0.0 0.0 0.0 0.0 0.0 0.0 0.0 0.0 0.0 0.0 0.0 0.0 0.0 0.0 0.0 0.0 0.0 0.0 0.0 0.0 0.0 0.0 0.0 0.0 0.0 0.0 0.0 0.0 0.0 0.0 0.0 0.0 0.0 0.0 0.0 0.0 0.0 0.0 0.0 0.0 0.0 0.0 0.0 0.0 0.0 0.0 0.0 0.0 0.0 0.0 0.0 0.0 0.0 0.0 0.0 0.0 0.0 0.0 0.0 0.0 0.0 0.0 0.0 0.0 0.0 0.0 0.0 0.0 0.0 0.0 0.0 0.0 0.0 0.0 0.0 0.0 0.0 0.0 0.0 0.0 0.0 0.0 0.0 0.0 0.0 0.0 0.0 0.0 0.7648527350552717 -0.002405226836260579 0.0 1.2154253438442655 0.12423075166255414 0.0 1.2282348344587954 -0.11957670693534513 0.0 0.0 0.0 0.0 1.3014282465747822 -0.07583027062459961 0.0 1.3157998294378594 0.09109394743322981 0.0 0.0 0.0 0.0 0.0 0.0 0.0 1.0 0.0 0.0 0.0 0.0 0.0 0.0 0.0 0.0 0.0 0.0 0.0 0.846998480964684 -0.22911332439832402 0.0 1.1543250531139029 -0.3017678178322638 0.0 0.8681429255782667 0.22451070306235787 0.0 1.1692331264727878 0.3088244258059721 0.0 0.4321132189455335 -0.005410860375318268 0.0 0.16569788259806179 0.027434571348192605 0.0 0.17155351814909575 -0.02315967347751125 0.0 -0.046892008975822824 -0.0630376197425951 0.0 -0.049412790784487244 0.06514456453089813 0.0 0.33814629090240444 -0.28307998823661484 0.0 0.8734771686169891 -0.6726835391204102 0.0 0.6511067504144631 -0.6944915997644231 0.0 1.243361849898087 -0.6027579722013977 0.0 0.30326125648918933 0.003014927721918879 0.0 0.3339458802584586 0.2688968669922444 0.0 0.6527552855169204 0.6723218751355952 0.0 1.2212444027017177 0.6033672016668387 0.0 0.2908294564476206 0.0008611946752557861 0.0 1.2834291501627342 0.19325174637351977 0.0 -0.020321441409434187 0.05460402683991665 0.0 1.2724304539603204 -0.17554810709016294 0.0 -0.017163855728304547 -0.05306139437255626 0.0 -0.036024271386842874 -0.024926637539838672 0.0 1.224476757811428 -0.39854354492861577 0.0 1.1284732669403303 -0.730668337137975 0.0 0.8712366976499043 0.7776717266353272 0.0 1.2317350081745735 0.39894406693178364 0.0 0.9099892011305941 0.16470798649556218 0.0 -0.037742921481332466 0.06958919329288492 0.0 0.9174823108009891 -0.16049668035161072 0.0 -0.038315859939152395 -0.06815967970070262 0.0 -0.03070282499872118 0.02327017359692406 0.0 1.060966272712717 0.7281851985320141 0.0 0.4480429545921175 0.5318380442453503 0.0 0.5373540860902918 0.03199500068643263 0.0 0.07568449912535549 0.04990604771473292 0.0 0.5453829332746026 -0.030731715595988272 0.0 0.08161726303387436 -0.04971504969323241 0.0 -0.11092443727076565 0.007036647320796543 0.0 0.9693376237326125 0.29798024621096797 0.0 1.253055319248798 0.2457790055161974 0.0 1.296350856065227 0.20371397596990987 0.0 1.225506735671928 -0.2438420679577343 0.0 1.292245109859879 -0.196782396002263 0.0 1.3050936113865081 0.25412561882911316 0.0 1.3071819523622172 -0.24639275084616807 0.0 0.4497589117840135 -0.5505988584332033 0.0 0.805863667162316 -0.13921976519799364 0.0 0.6791620729903282 -0.4195659269760374 0.0 0.8914984535789805 0.5915341077155528 0.0 0.8032494976396239 0.1402593027598418 0.0 0.6845170969347901 0.4180799857502565 0.0 1.2797356776348219 -0.04771996290700097 0.0 0.19223993544147874 0.033814442169111274 0.0 0.20793172622674422 -0.02722979855928181 0.0 -0.0846894743814254 -0.035143198589591244 0.0 1.3027407974462946 0.42802347167153726 0.0 0.8777516574253671 0.06761118453722638 0.0 1.2971857772650879 -0.4334694511938859 0.0 0.8944959624617882 -0.0604413630856495 0.0 1.3332243820325904 0.3598457308101665 0.0 1.2708955735603902 0.34565371005773243 0.0 1.3279139530412984 -0.3575064735904603 0.0 1.2609432081625895 -0.3267465284138692 0.0 0.5883883334944661 -0.16174086481674782 0.0 0.8031855767558141 -0.3296683246411079 0.0 1.0317212787527494 0.5963034097027586 0.0 0.5964057865393309 0.14911536782460083 0.0 0.8191580436476751 0.3273910116334358 0.0 0.8756215285179072 0.03611868332054797 0.0 0.9017014925077335 -0.026408762228197113 0.0 -0.038577320543289606 -0.05853891630174186 0.0 1.3101345385916514 0.13451500201644542 0.0 0.9339502578039302 -0.30516506026005663 0.0 1.2915011174102147 -0.11941462410991033 0.0 0.41026348730091566 0.027819915346925184 0.0 0.4374894841460224 -0.018070258508323993 0.0 -0.12545623207576848 -0.0284473959159325 0.0 1.0627249255544173 0.3229627069150744 0.0 0.9527814183332182 0.3797424491836012 0.0 1.0300269190160782 0.07074733227269554 0.0 0.9223388683203052 -0.048326231820126325 0.0 1.2739264646468893 0.05296771228624714 0.0 1.0331149977496126 -0.3178101427416189 0.0 1.0980045190507859 -0.5578634781321227 0.0 0.9400877250674525 -0.37953355516074827 0.0 1.0119196824170962 -0.4245737511564732 0.0 0.9471972110917911 -0.5377548552797129 0.0 0.8743500661568646 -0.4013988244241314 0.0 1.3107817367427999 0.15680070637100857 0.0 1.3012329640706672 -0.14693565508129933 0.0 0.8561276221238984 -0.23019459429767325 0.0 0.8849753779918725 -0.3026056344374136 0.0 0.8586774684749587 -0.2944411092043656 0.0 0.8534399398279887 -0.2454039819458007 0.0 0.8574319020020778 -0.24465944518989938 0.0 0.9019987454974857 -0.30868277123057997 0.0 1.3164673459284946 0.22773787904554366 0.0 1.1757373971014728 -0.04148174640063939 0.0 1.3277711289033172 0.2883904929238371 0.0 1.3065516142101168 -0.2099208137427051 0.0 0.0 0.0 0.0 0.0 0.0 0.0 1.3099556440804907 -0.27680358224855384 0.0 0.7197421484419008 -0.2674621248219789 0.0 0.824487151928075 -0.20926783264555462 0.0 0.8736852679919159 -0.10970347613871777 0.0 0.8655150888676757 -0.16178880193066983 0.0 0.9375 0.0 0.0 0.7500000000000001 0.0 0.0 0.7276999078073464 0.26307513403821386 0.0 0.8282842554273904 0.19670087796155697 0.0 0.7499999999999999 0.0 0.0 0.8726460070792483 0.12492124019002085 0.0 0.9301804447430256 0.04112600128829533 0.0 0.8509566333583575 0.04342812017126984 0.0 -0.09450369813886951 -0.04087453462417322 0.0 0.00944027401452444 -0.04005138762925207 0.0 1.1386309092458755 0.5375623746608794 0.0 1.033310405206537 0.4588258730514776 0.0 0.8840289312463633 0.2381002270047125 0.0 1.2517631277973593 0.08558918759079329 0.0 1.3032485313743865 0.014331862904716509 0.0 0.2904090226913757 0.020661420244761763 0.0 1.3167921224759551 0.04980973597226589 0.0 0.8228034843071284 0.015089086989348776 0.0 1.232296338479155 0.054645480558484734 0.0 0.5898915419230518 -0.012138273547397643 0.0 0.5537719000000556 0.0032803128341004676 0.0 -0.00018808961619562603 0.02911447810199623 0.0 1.0778483437582493 -5.149459770386163e-06 0.0 0.23582329219370135 0.01410182895050659 0.0 0.1473814807042924 0.003664516944188066 0.0 0.2680751713523466 0.004051841718334971 0.0 0.795376885498455 -0.04035592094433317 0.0 0.5866495516740331 -0.02201562964907791 0.0 1.2977264266721522 -0.020739455623201265 0.0 0.60657668616056 0.02950257922794843 0.0 1.2611921572605622 -0.08513059136349403 0.0 0.0875956837527061 -0.042562266559508045 0.0 1.1520552169569693 0.11523566559141145 0.0 0.8854240245408346 0.17456359745226463 0.0 0.6959376110447274 -0.1560326965194535 0.0 1.0455550294062088 -0.057646833908609287 0.0 1.0176567232422384 -0.1840766753380979 0.0 0.8664320745608168 -0.17902909484854676 0.0 0.8778826348846612 -0.026078159720796586 0.0 0.43136046610508016 -0.014938690905967743 0.0 0.2388131206599737 -0.02030467776599164 0.0 1.2918056484119689 0.0009363580112358885 0.0 0.1879900723655991 -0.00990031093997169 0.0 1.3027963017854154 -0.03599826028925052 0.0 0.14026101204814526 -0.022181979827178504 0.0 0.6072382397828292 0.012911253087519644 0.0 -0.07409198758928097 -0.026732643764447155 0.0 0.6402984053567358 0.0011401979110236505 0.0 0.8845640999955794 0.2901769164612122 0.0 0.8881283739519602 0.4040719771532529 0.0 0.886701559572176 0.2568902160498865 0.0 0.9141255085759531 0.10687019892503342 0.0 0.8672972815227703 0.21462226227747486 0.0 0.9094049680442775 0.2933390986187186 0.0 0.8584995743782896 0.22298313106922074 0.0 0.8016812033351279 0.17338625291305582 0.0 0.8683521271829227 0.15582318479082183 0.0 0.0 0.0 0.0 0.8423638272540203 0.1695418327337066 0.0 0.8738697965581637 0.1672098847847526 0.0 1.1200243522656668 0.012991754344659994 0.0 1.2703970782414162 0.022446718198103496 0.0 1.0164993768075596 -0.021244313403899505 0.0 0.7295359128620121 -0.0677700911760884 0.0 1.2149208046584028 0.08926190256545877 0.0 0.7160761760853015 -0.16454921027961286 0.0 1.1239577048996965 -0.11082710118460691 0.0 1.0993679471855322 0.01250208689584833 0.0 1.2863940590804344 0.02975766242677179 0.0 0.6854838107165061 0.03068718186535558 0.0 1.2493502594487678 0.020419043428194124 0.0 1.0897596816327484 0.04394019805040761 0.0 -0.06680482699193495 -0.008921754326102375 0.0 -0.19390819214621857 0.005164651318200103 0.0 0.9505838927698089 0.3264517392610266 0.0 1.0120642798564412 -0.05715412436227827 0.0 0.5188480986761345 -0.03943374958081706 0.0 0.0 0.0 0.0 1.2229099670672146 -0.0044773909256269236 0.0 1.2556957539139058 -0.013984035764027064 0.0 1.235063676877359 0.059809697725689094 0.0 1.1048793953528748 -0.07347016443657607 0.0 0.45404942058768966 0.007282313689465167 0.0 1.248286489084659 0.04715501306160779 0.0 1.2489910395494057 0.09496349964555091 0.0 -0.012993222474999344 -0.0157309329889591 0.0 -0.1691026041991498 -0.014718804526654966 0.0 -0.1582710912306724 -0.01679678344025122 0.0 -0.15545702280882356 0.014067807342577442 0.0 1.1528144505782327 0.16522758092416023 0.0 0.7732958935992107 0.18322619791007663 0.0 0.7777701103551603 0.14667995097709755 0.0 0.7859491349186106 0.10240729616941997 0.0 0.6180166274942731 0.10407967593267989 0.0 0.4085420212462574 -0.021425621915605462 0.0 0.0716343438626687 -0.004977067533084762 0.0 0.46469965816180137 -0.059760521552393954 0.0 0.9916148967407308 0.04255342526544363 0.0 0.0 0.0 0.0 0.6151066881953839 0.04050147600901974 0.0 1.0464004706976815 0.0657501255271772 0.0 -0.2244438535224883 0.0007013007012003601 0.0 1.0804533827930802 0.22125409620233807 0.0 0.9013937467731806 0.10866633901403479 0.0 1.2589208244044412 -0.09166265895103644 0.0 0.19001807486567884 0.005729336451209678 0.0 0.438126189683344 0.04694049215274096 0.0 0.14597015807786648 0.01145149379338521 0.0 1.2649284338696503 0.07649941802823378 0.0 -0.2154356470448647 -0.002702012704345757 0.0 -0.17410930809888728 -0.012124762156778397 0.0 -0.20496486015709509 -0.007379825459841185 0.0 -0.12927674518710183 0.013564800989165737 0.0 -0.19758189340017548 -0.003699977065550469 0.0 -0.23388273206152024 -0.0014538122478093358 0.0 -0.146952038401115 0.0016999453669607812 0.0 -0.1185840091822705 -0.0006249447392733701 0.0 -0.23631144904919438 -0.0039647295119483 0.0 0.06453125962076695 -0.018876318175074902 0.0 -0.11928866969117592 0.006977521744265184 0.0 -0.23120658981847436 -0.00599477162039894 0.0 -0.2361713630303876 -0.004933698351457759 0.0 -0.07369580414674834 -0.017757844455056564 0.0 0.0 0.0 0.0 0.9378030210203823 0.22883375727382724 0.0 0.9517353018027656 0.03864527256753449 0.0 0.2621485747573868 -0.027128748972712575 0.0 0.33576908946731326 0.010439534494637947 0.0 0.6560808277319381 0.05499048443279715 0.0 1.0319054407325006 0.08499291467866439 0.0 1.2256363078403678 0.07185624307568855 0.0 1.2490079641475944 -0.026996886112045513 0.0 0.08189683015477754 0.015239532435404452 0.0 -0.09945935584087358 -0.010712710449063401 0.0 0.022039768220561497 -0.038185079827301315 0.0 0.15988343203735142 -0.034771079873320294 0.0 0.16058576347291512 -0.04513768572784981 0.0 0.41065692329873926 -0.06388637908405777 0.0 0.7297979601413962 -0.10606375612738511 0.0 0.9995031492928107 -0.10376930572656655 0.0 0.4845339263712588 -0.07855158127050019 0.0 0.6969064479537647 -0.08452606220657052 0.0 0.8039316155504581 -0.10124336809172448 0.0 0.9169960271582349 -0.0892593929219159 0.0 0.3556316870127655 -0.07220743971831003 0.0 1.2437874821976005 -0.1070972926190472 0.0 1.1490021182248538 -0.09933464844289072 0.0 1.2718842242734512 -0.07059867753928858 0.0 1.146013532738927 -0.08488293467286448 0.0 -0.07064897757685165 -0.02877188940403853 0.0 1.1224019734051043 -0.11784117569637544 0.0 1.1550383945666718 -0.07185535903626494 0.0 1.1046241013974145 -0.10008445033502097 0.0 -0.17184088683684234 -0.007266282915357701 0.0 0.6061794806796929 -0.0990745671797183 0.0 1.1642126339834626 -0.131510032902535 0.0 0.18990038764553246 -0.05887406575125954 0.0 -0.21359167493574333 -0.0033713998851759644 0.0 1.212440480382567 -0.12756811170386936 0.0 0.11038054453318907 -0.05304233084977135 0.0 -0.18765912189677952 -0.009610720202255828 0.0 -0.04431901505958643 0.031034141693254812 0.0 0.0738930650808602 -0.04814809774723174 0.0 -0.0949720379475736 -0.023172279850386637 0.0 0.5672415370850228 -0.10193193168348855 0.0 -0.052317787177400876 -0.02804307604186861 0.0 0.2136235510863055 0.0647246946536424 0.0 -0.12554082462641478 0.017978257103874032 0.0 -0.08168458173449109 -0.015091854019712518 0.0 -0.13831129491232974 0.0026918125032052344 0.0 0.0662014050265324 0.047430735256297644 0.0 1.0682104406845128 0.09876453885508724 0.0 0.4451487825557975 0.08580411421337208 0.0 0.4421758312577643 -0.09128207694735288 0.0 0.3147376671673561 -0.03987182973604799 0.0 0.8488695317585102 -0.06215501124106779 0.0 0.35661872666115946 0.026763132336698515 0.0 1.2110121805978786 0.09373811535322642 0.0 1.0126733323301753 0.10949503076848202 0.0 1.043702239607279 -0.13583804965804358 0.0 -0.12330621220851062 -0.00274100379285032 0.0 -0.11986016524495163 -0.018743277774294152 0.0 -0.21698939897880135 -0.007718585423674938 0.0 -0.09583702450143708 0.017145645690345882 0.0 -0.14473061001568127 -0.018140179780057806 0.0 0.450708998536652 -0.08784166311500526 0.0 1.1964089842949914 -0.1303406166499387 0.0 0.7867981102559426 -0.11840214069535905 0.0 1.0160428797865695 -0.13797768073554384 0.0 -0.019460267603512632 0.034985624404500495 0.0 0.12001125136581381 -0.05286066273891668 0.0 0.04103082688793915 -0.030855048982811873 0.0 0.33144927764486 -0.07716952037950477 0.0 0.015919078808622308 -0.03254844643550072 0.0 1.1412860450450448 0.13356019317833462 0.0 -0.05437885137301366 -0.000581212073372356 0.0 0.046448541963131425 0.024269303158594425 0.0 -0.018649157707308253 0.0022606987002433943 0.0 0.14706468473915485 -0.039647897438450916 0.0 0.4293250535454005 0.06070769676150732 0.0 0.8469005646161721 -0.12630723616149805 0.0 0.6695563823109898 -0.11363946556668929 0.0 0.9351121075941645 -0.12468554926334349 0.0 0.38474957708064916 -0.08454778117419917 0.0 0.9554234696017784 -0.13535872769830587 0.0 1.178132394464586 -0.135547834601209 0.0 1.1364854078451045 -0.13378671511755344 0.0 1.1254455235334988 -0.12635557178144904 0.0 0.7582965660957955 -0.12181668746806083 0.0 0.6718746530234267 -0.11298503627057939 0.0 0.5572418667982514 -0.09692798274576696 0.0 0.5259792501132796 -0.09679057429015002 0.0 0.25512856523705446 -0.06467236391010653 0.0 0.9278838507017357 -0.13021726236966022 0.0 0.3203447180706586 0.0419119135377628 0.0 0.7391951231544165 0.08010210530146718 0.0 0.06217760789041121 0.023036373122885454 0.0 0.22208673723620964 0.048801598249550784 0.0 -0.1449423174385732 0.007165156021099823 0.0 1.2282451906838778 0.01323459370729635 0.0 1.0800737491949872 0.06554476046781887 0.0 1.2469945249858663 -0.05128777035998347 0.0 1.1826112888236657 -0.09713682748426336 0.0 0.29461292996637595 -0.06594933554605788 0.0 0.5261155787611868 -0.08639530423447103 0.0 0.6993162177458413 0.09668541008375124 0.0 0.11520772936221148 0.04453637607706538 0.0 1.1953756511142088 0.036267298243257556 0.0 1.2343471311370335 -0.07084464741258956 0.0 0.6883169224022052 0.11937052735716688 0.0 1.1858482926505904 -0.10950143212763315 0.0 0.7260153090695443 0.09054033955853695 0.0 1.2335722173389423 0.1124962475239562 0.0 0.44153937556536677 0.07839863775182435 0.0 0.852248223399583 0.12040843574311104 0.0 1.2176879645438994 0.05728810570854578 0.0 1.098204890089846 -0.053444957666864405 0.0 1.1690310174096459 -0.11647399001588794 0.0 0.9586912254294275 0.11321903825419018 0.0 1.1228487011060664 0.1301991571286073 0.0 1.164628314985513 0.11968863256271293 0.0 1.18027211067564 0.13682312450255046 0.0 1.1491908482698376 0.14621680442937784 0.0 1.0729346832358972 0.13592439260619127 0.0 0.8225581444709109 0.12682666781533006 0.0 1.0991182557953023 -0.11178570465390349 0.0 0.0 0.0 0.0 1.166836036639847 0.08902591376776682 0.0 1.0248401817396657 0.14539700521516777 0.0 0.45219514099981895 0.09315904458381478 0.0 1.1754238706630082 0.10566850091353606 0.0 1.0152197641366885 0.14288919421191562 0.0 1.1988494373728869 0.13151422528061404 0.0 0.7571410223302102 0.12594380956113266 0.0 1.1597813999929096 0.13640918645585118 0.0 0.7150975031456507 0.12460314416934383 0.0 0.3784883781712384 0.08898353024964155 0.0 1.1463803002968451 0.14688173663510973 0.0 0.8197255804074144 0.13404013970918446 0.0 1.1056077591309244 0.1472258896712691 0.0 0.9700702683425312 0.14515047574008905 0.0 0.9158407701870759 0.13939711155763085 0.0 1.1911993742222473 0.1359400293214852 0.0 1.149377617954351 0.14225801554282716 0.0 1.155313796580319 0.11587888741269207 0.0 0.2394686523789844 0.07040543283854249 0.0 0.9297781494906557 0.09089802117422144 0.0 1.1520568468872439 0.14154381465992122 0.0 1.1318464246036026 0.14284365397430038 0.0 1.1022446576525156 0.11913814752137646 0.0 1.1204492005223758 0.12815108311602863 0.0 1.128841962670653 0.11833479630470882 0.0 0.9939359413616872 0.08624681005495209 0.0 1.023710275535662 0.13530830032624774 0.0 1.0226027537683173 0.10506862511428111 0.0 1.109292789200185 0.11780365568501787 0.0 0.8166403096062566 0.07282022680693884 0.0 1.1145157511723018 0.13236032524485447 0.0 1.0800614197289777 0.12609636903547894 0.0 1.0885235084565996 0.14122659847093766 0.0 1.0279187518836967 0.1038361036027864 0.0 0.0 0.0 0.0 0.6487187099412021 -0.00681651773334043 0.0 1.0913693629141354 0.4097717127489476 0.0 1.1834698514391222 0.386368445910789 0.0 1.0978243265528254 -0.40258134349420055 0.0 0.8594083699348041 -0.20698183513274973 0.0 0.9709669474094892 -0.22484983530658076 0.0 0.8936944302541963 -0.083378918114395 0.0 1.2573868842339149 -0.013365724893515165 0.0 1.1635508125430756 -0.026322981204145463 0.0 1.2481430919704783 -0.05614926218590479 0.0 1.1778129776493051 -0.037942221046646886 0.0 1.2192922314956847 -0.011900877995215827 0.0 -0.1428459119187069 -0.007825844827812756 0.0 -0.13370884814904763 0.024105597444056676 0.0 -0.07329893926349683 0.021443054895401863 0.0 -0.0774756726534988 0.039740238153053886 0.0 0.06695423422911312 0.037000573446287426 0.0 -0.11581033203856769 0.03110349108463792 0.0 -0.03852174957330202 0.05863330484362673 0.0 0.08985993181636856 0.045637156601817545 0.0 -0.03297389476371918 0.07084644656173986 0.0 -0.08160478649404326 0.047796446761676416 0.0 0.988494233664247 0.11882442086832097 0.0 -0.12560341202867065 0.01700928590551566 0.0 1.1803752234523126 -0.13186825190864654 0.0 1.1574223383338738 -0.14004976783241468 0.0 1.051536411879607 -0.1395829471901808 0.0 1.1297925588036444 -0.139746578056544 0.0 1.1336837492049983 -0.11827729411358656 0.0 1.0201095776469504 -0.13681560687717922 0.0 1.1484811291648855 -0.1257853290099734 0.0 1.107345011996146 -0.13532544980318004 0.0 1.1352227316852155 -0.1363235067910236 0.0 0.9794213477945735 -0.12433481995536501 0.0 1.0114051154347588 -0.13033805706938725 0.0 0.794592220920266 -0.1158481711975473 0.0 1.1108314248136093 -0.1284903655000755 0.0 1.1181912840808448 -0.1106046995612536 0.0 1.0890782321848116 -0.12112435414650645 0.0 0.9488065541990353 -0.08758726588181402 0.0 1.1283607597042098 -0.1187081574749557 0.0 0.841436975337392 -0.10784012568964248 0.0 1.10845625091496 -0.11206155327726439 0.0 1.0207674554041601 -0.11501047536479944 0.0 0.8027352784076685 -0.0930304434894163 0.0 0.9503605728958906 -0.09122545774538994 0.0 0.8803315347567009 -0.10410478898914677 0.0 0.4179940578524443 -0.06316467181123939 0.0 0.9797423355417989 -0.10440499972073465 0.0 0.6571766795243976 -0.08624425