<?xml version="1.0"?>
<VTKFile type="UnstructuredGrid"  version="0.1"  >
<UnstructuredGrid>
<Piece  NumberOfPoints="1289" NumberOfCells="2413">
<Points>
<DataArray  type="Float64"  NumberOfComponents="3"  format="ascii">0 0 0  0 0.41 0  2.2 0.41 0  2.2 0 0  0.1 0.1 0  0.1 0.3 0  0.8 0.3 0  0.8 0.1 0  0.25 0.2 0  0.248976 0.210065 0  0.245948 0.219718 0  0.241038 0.228563 0  0.234448 0.23624 0  0.226448 0.242432 0  0.217365 0.246888 0  0.207571 0.249423 0  0.197468 0.249936 0  0.187467 0.248404 0  0.17798 0.24489 0  0.169395 0.239539 0  0.162062 0.232569 0  0.156283 0.224265 0  0.152293 0.214968 0  0.150257 0.205058 0  0.150257 0.194942 0  0.152293 0.185032 0  0.156283 0.175735 0  0.162062 0.167431 0  0.169395 0.160461 0  0.17798 0.15511 0  0.187467 0.151596 0  0.197468 0.150064 0  0.207571 0.150577 0  0.217365 0.153112 0  0.226448 0.157568 0  0.234448 0.16376 0  0.241038 0.171437 0  0.245948 0.180282 0  0.248976 0.189935 0  1.1 0 0  1.1 0.41 0  0.1 0.2 0  0.45 0.1 0  0.45 0.3 0  0.55 0 0  0.275 0.1 0  0.275 0.3 0  0.275 0 0  0.55 0.41 0  0 0.205 0  0.825 0 0  0.825 0.41 0  0.275 0.41 0  0.1 0.15 0  0.1875 0.1 0  0.1 0.25 0  0.1875 0.3 0  0.132322 0.2 0  0.241426 0.253518 0  0.241426 0.146482 0  0.264574 0.17974 0  0.264574 0.22026 0  0.138434 0.187348 0  0.153372 0.150948 0  0.148413 0.164094 0  0.176495 0.136535 0  0.22768 0.143571 0  0.138434 0.212652 0  0.148413 0.235906 0  0.176495 0.263465 0  0.22768 0.256429 0  0.23125 0.3 0  0.24769 0.24094 0  0.23125 0.1 0  0.24769 0.15906 0  0.26253 0.193641 0  0.190482 0.137872 0  0.166753 0.146661 0  0.157737 0.244461 0  0.190482 0.262128 0  0.203107 0.261264 0  0.253635 0.22977 0  0.203107 0.138736 0  0.253635 0.17023 0  0.261028 0.206206 0  0.167707 0.251809 0  0.143629 0.224191 0  0.215302 0.2591 0  0.270465 0.245894 0  0.215302 0.1409 0  0.270465 0.154106 0  0.284052 0.202587 0  0.14375 0.3 0  0.209375 0.3 0  0.225966 0.278501 0  0.209375 0.1 0  0.225966 0.121499 0  0.211613 0.273759 0  0.211613 0.126241 0  0.143629 0.175809 0  0.1 0.175 0  0.133484 0.164832 0  0.144491 0.249539 0  0.1 0.225 0  0.133484 0.235168 0  0.3625 0.3 0  0.25691 0.253381 0  0.25691 0.146619 0  0.277205 0.188698 0  0.184724 0.275712 0  0.237372 0.268285 0  0.184724 0.124288 0  0.237372 0.131715 0  0.197578 0.273149 0  0.193656 0.286994 0  0.197578 0.126851 0  0.193656 0.113006 0  0.122953 0.187671 0  0.118362 0.153758 0  0.155372 0.258107 0  0.122953 0.212329 0  0.118362 0.246242 0  0.276394 0.27264 0  0.276394 0.12736 0  0.280965 0.170013 0  0.253125 0.3 0  0.14375 0.1 0  0.253125 0.1 0  0.269489 0.26014 0  0.269489 0.13986 0  0.303639 0.184297 0  0.165625 0.3 0  0.134742 0.273113 0  0.257831 0.274737 0  0.255279 0.128499 0  0.3625 0.1 0  0.165625 0.1 0  0.162031 0.132368 0  0.134955 0.126405 0  0.149334 0.125568 0  0.142936 0.139597 0  0.12695 0.140259 0  0.242514 0.285501 0  0.242514 0.114499 0  0.1 0.125 0  0.117483 0.12555 0  0.11154 0.139776 0  0.121875 0.1 0  0.109143 0.1125 0  0.126805 0.114 0  0.220313 0.29129 0  0.351562 0.287369 0  0.207222 0.2866 0  0.220312 0.10871 0  0.1375 0 0  0.20625 0 0  0.207222 0.1134 0  0.11722 0.17118 0  0.1 0.1625 0  0.0778409 0.16875 0  0.0862762 0.15625 0  0 0.15375 0  0 0.1025 0  0.11722 0.22882 0  0.1 0.2375 0  0 0.3075 0  0.0862762 0.23125 0  0.0598995 0.222547 0  0.0860223 0.2125 0  0.289584 0.181469 0  0.300267 0.16446 0  0.163832 0.269071 0  0.149597 0.273325 0  0.1 0.275 0  0.268498 0.285953 0  0.31875 0.3 0  0.294154 0.254672 0  0.296875 0.3 0  0.293558 0.271845 0  0.285095 0.286799 0  0.324298 0.264316 0  0.307866 0.263745 0  0.317093 0.234901 0  0.315485 0.281219 0  0.316547 0.250625 0  0.344693 0.243731 0  0.331592 0.251147 0  0.35129 0.270663 0  0.338689 0.263683 0  0.340625 0.3 0  0.249849 0.264383 0  0.265097 0.11422 0  0.284688 0.156136 0  0.242188 0.324017 0  0.0856613 0.2625 0  0.132812 0.0612217 0  0.264062 0.0612217 0  0.198437 0.07598340000000001 0  0.0860223 0.1375 0  0.0794526 0.191089 0  0.285228 0.140397 0  0.298655 0.148737 0  0.31875 0.1 0  0.327335 0.15374 0  0.296875 0.1 0  0.312289 0.155283 0  0.313348 0.135607 0  0.321802 0.173916 0  0.298433 0.134116 0  0.112124 0.2625 0  0.127526 0.259083 0  0.121875 0.3 0  0.0682687 0.241503 0  0.1 0.2875 0  0.117762 0.28125 0  0.107813 0.3 0  0.103906 0.313849 0  0.0778409 0.28125 0  0.1375 0.41 0  0.0862762 0.29375 0  0.08886860000000001 0.24375 0  0.307812 0.338778 0  0.307812 0.292227 0  0.33216 0.279164 0  0.387888 0.266414 0  0.264063 0.31948 0  0.110937 0.07598340000000001 0  0.242188 0.07598340000000001 0  0.319914 0.11839 0  0.340625 0.1 0  0.334448 0.133793 0  0.329687 0.108539 0  0.346259 0.118491 0  0.360334 0.173636 0  0.327539 0.205033 0  0.132812 0.288712 0  0.362436 0.278836 0  0.368105 0.259418 0  0.4125 0.41 0  0.329687 0.324017 0  0.329687 0.292306 0  0.285938 0.318952 0  0.417187 0.338778 0  0.324481 0.14148 0  0.351562 0.106771 0  0.40625 0.1 0  0.341028 0.168342 0  0.319221 0.190479 0  0.335292 0.184501 0  0.305563 0.20794 0  0.220313 0.31948 0  0.132812 0.332772 0  0.0865876 0.311259 0  0.0598995 0.302453 0  0.0906541 0.343255 0  0.353543 0.255837 0  0.36574 0.237633 0  0.405007 0.254279 0  0.275795 0.352123 0  0.4125 0 0  0.35493 0.137394 0  0.366563 0.120618 0  0.35917 0.205246 0  0.198438 0.318952 0  0.0626109 0.263892 0  0.40625 0.3 0  0.354809 0.155936 0  0.386512 0.146872 0  0.373101 0.159939 0  0.384375 0.1 0  0.343394 0.19929 0  0.350682 0.185683 0  0.368101 0.189748 0  0.344016 0.221511 0  0.391108 0.213329 0  0.376279 0.204783 0  0.398843 0.182768 0  0.375804 0.222746 0  0.390665 0.196958 0  0.394004 0.23518 0  0.359883 0.222828 0  0.419908 0.204359 0  0.404243 0.204783 0  0.412615 0.224526 0  0.20625 0.41 0  0.165625 0.325257 0  0.0347982 0.244954 0  0.379558 0.247154 0  0.34165 0.147603 0  0.372264 0.136992 0  0.388988 0.121989 0  0.373437 0.108554 0  0.351562 0.31948 0  0.391367 0.16527 0  0.399572 0.223324 0  0.452011 0.227371 0  0.40877 0.239392 0  0.431491 0.237337 0  0.421224 0.250459 0  0.449619 0.262098 0  0.418865 0.276779 0  0.437063 0.252274 0  0.415673 0.263227 0  0.430988 0.266772 0  0.402767 0.273419 0  0.452967 0.244883 0  0.428125 0.3 0  0.408502 0.286186 0  0.384375 0.3 0  0.392267 0.285807 0  0.465927 0.219339 0  0.43489 0.283846 0  0.376424 0.286289 0  0.625 0.3 0  0.473533 0.205186 0  0.461713 0.255517 0  0.5375 0.3 0  0.465725 0.235405 0  0.44631 0.201425 0  0.471875 0.3 0  0.494307 0.227729 0  0.459448 0.206736 0  0.462294 0.180792 0  0.478933 0.227536 0  0.486793 0.21381 0  0.486322 0.251373 0  0.50065 0.215318 0  0.54005 0.175389 0  0.474633 0.189893 0  0.512916 0.208697 0  0.49531 0.199967 0  0.475889 0.175275 0  0.625 0.1 0  0.459311 0.153933 0  0.513645 0.242704 0  0.392892 0.248539 0  0.374815 0.271913 0  0.365974 0.14871 0  0.395312 0.109184 0  0.417061 0.123981 0  0.483196 0.277003 0  0.381967 0.179632 0  0.429898 0.219374 0  0.433473 0.206165 0  0.43149 0.181038 0  0.444208 0.215487 0  0.472985 0.247309 0  0.49375 0.3 0  0.475579 0.262714 0  0.49916 0.274293 0  0.501175 0.184809 0  0.514164 0.225681 0  0.543648 0.214977 0  0.5341630000000001 0.23481 0  0.527396 0.216171 0  0.5375 0.1 0  0.534548 0.202315 0  0.561545 0.192513 0  0.5494289999999999 0.201221 0  0.570923 0.218346 0  0.412582 0.149833 0  0.489327 0.264745 0  0.502439 0.254775 0  0.462391 0.271166 0  0.496775 0.241732 0  0.5294410000000001 0.268606 0  0.482812 0.291099 0  0.46879 0.285038 0  0.452663 0.284065 0  0.51789 0.257882 0  0.53408 0.252026 0  0.560142 0.243543 0  0.545708 0.243474 0  0.547532 0.229019 0  0.55282 0.265323 0  0.398971 0.153424 0  0.400349 0.135684 0  0.410135 0.168145 0  0.428823 0.161323 0  0.415266 0.183779 0  0.329687 0.0810483 0  0.395312 0.0612217 0  0.373437 0.318952 0  0.439062 0.324017 0  0.561816 0.229354 0  0.585029 0.239287 0  0.431827 0.139854 0  0.446796 0.168929 0  0.351562 0.07598340000000001 0  0.395313 0.318944 0  0.54337 0.150762 0  0.460937 0.31948 0  0.418412 0.137529 0  0.428125 0.1 0  0.442783 0.152332 0  0.450742 0.134294 0  0.373437 0.0805201 0  0.384383 0.342558 0  0.482812 0.318952 0  0.429239 0.127457 0  0.444274 0.117405 0  0.426548 0.113815 0  0.49375 0.1 0  0.488954 0.113984 0  0.457973 0.121842 0  0.471621 0.137346 0  0.515625 0.325257 0  0.48125 0.41 0  0.417187 0.07598340000000001 0  0.496363 0.126778 0  0.479043 0.155715 0  0.439062 0.0805201 0  0.481795 0.126919 0  0.471875 0.1 0  0.489227 0.142159 0  0.515625 0.1 0  0.520062 0.147117 0  0.501244 0.161791 0  0.505431 0.112984 0  0.505344 0.14029 0  0.526563 0.119081 0  0.5181750000000001 0.131908 0  0.539868 0.136937 0  0.460937 0.108383 0  0.474242 0.114415 0  0.460937 0.0810483 0  0.487841 0.167168 0  0.526563 0.0612217 0  0.526563 0.106406 0  0.537619 0.112743 0  0.58125 0.1 0  0.559375 0.1 0  0.482812 0.08105569999999999 0  0.471883 0.0587655 0  0.570312 0.129396 0  0.548437 0.07598340000000001 0  0.504687 0.08105569999999999 0  0.49375 0.0470127 0  0.570312 0.112663 0  0.592798 0.12103 0  0.553986 0.12103 0  0.570312 0.0805201 0  0.48125 0 0  0.114787 0.2 0  0.160769 0.284765 0  0.175816 0.288361 0  0.162602 0.116048 0  0.154687 0.07598340000000001 0  0.176562 0.0805201 0  0.0598995 0.147547 0  0.307812 0.109924 0  0.291279 0.117157 0  0.278491 0.112989 0  0.285937 0.07598340000000001 0  0.307812 0.0805201 0  0.296928 0.196743 0  0.318141 0.218507 0  0.330208 0.227509 0  0.301397 0.225668 0  0.302706 0.241401 0  0.292574 0.21424 0  0.282762 0.230935 0  0.284351 0.244775 0  0.269553 0.23261 0  0.278572 0.217242 0  0.226924 0.342606 0  0.446928 0.185396 0  0.515625 0.3 0  0.504687 0.288879 0  0.515256 0.276534 0  0.529479 0.285328 0  0.58125 0.3 0  0.541969 0.272936 0  0.559375 0.3 0  0.556796 0.282529 0  0.543473 0.287206 0  0.581429 0.267774 0  0.566728 0.271171 0  0.570869 0.255585 0  0.577404 0.283865 0  0.603125 0.3 0  0.597531 0.28035 0  0.570312 0.338778 0  0.592188 0.292492 0  0.603513 0.256094 0  0.614063 0.286265 0  0.610329 0.27064 0  0.632708 0.251285 0  0.657223 0.261594 0  0.618789 0.257807 0  0.614188 0.22987 0  0.630935 0.265614 
[...]
<PointData  Vectors="v"> 
	<DataArray  type="Float64"  Name="v"  NumberOfComponents="3" format="ascii">
0.0 0.0 0.0 0.0 0.0 0.0 0.0 0.0 0.0 0.0 0.0 0.0 0.7975333609735441 -0.18908024082732047 0.0 0.8411591090542493 0.19835087301945437 0.0 1.0255473443304235 -0.03219820026336099 0.0 0.9692559221624878 0.026928219544105528 0.0 0.0 0.0 0.0 0.0 0.0 0.0 0.0 0.0 0.0 0.0 0.0 0.0 0.0 0.0 0.0 0.0 0.0 0.0 0.0 0.0 0.0 0.0 0.0 0.0 0.0 0.0 0.0 0.0 0.0 0.0 0.0 0.0 0.0 0.0 0.0 0.0 0.0 0.0 0.0 0.0 0.0 0.0 0.0 0.0 0.0 0.0 0.0 0.0 0.0 0.0 0.0 0.0 0.0 0.0 0.0 0.0 0.0 0.0 0.0 0.0 0.0 0.0 0.0 0.0 0.0 0.0 0.0 0.0 0.0 0.0 0.0 0.0 0.0 0.0 0.0 0.0 0.0 0.0 0.0 0.0 0.0 0.0 0.0 0.0 0.0 0.0 0.0 0.0 0.0 0.0 0.0 0.0 0.0 0.0 0.0 0.0 0.0 0.0 0.0 0.7648596405287427 -0.0029548015702169717 0.0 1.214418656606667 0.12290961194960594 0.0 1.2303039534640672 -0.11805934182244056 0.0 0.0 0.0 0.0 1.3025319340358694 -0.07556656629764769 0.0 1.3153775947455413 0.09019987039380803 0.0 0.0 0.0 0.0 0.0 0.0 0.0 1.0 0.0 0.0 0.0 0.0 0.0 0.0 0.0 0.0 0.0 0.0 0.0 0.8471621897065149 -0.22954741538089976 0.0 1.1549258173318429 -0.3019073282654996 0.0 0.8680026446964779 0.2240634927068643 0.0 1.1686328268927002 0.30839606659802243 0.0 0.4321110036225357 -0.006158164806182093 0.0 0.1665978644084141 0.026882549330045483 0.0 0.17125072455067494 -0.023610852507476687 0.0 -0.04708949257995316 -0.06486657511141504 0.0 -0.04929371402334235 0.06346721917422603 0.0 0.3382951128774464 -0.28391550602988164 0.0 0.873969939412304 -0.6732809147073038 0.0 0.6515268060557444 -0.6952263756468081 0.0 1.2440631043397334 -0.6031625762781165 0.0 0.303087794003709 0.0028452367884911523 0.0 0.33380399809087213 0.26806672357458405 0.0 0.6523929955611023 0.6715988494430476 0.0 1.2207628953673941 0.6028799133340926 0.0 0.291791143904845 0.0005464735363011561 0.0 1.2825339195013519 0.19240617988339392 0.0 -0.01997898391838601 0.05384088803700494 0.0 1.2731921090952611 -0.17573231988966548 0.0 -0.017375937566103665 -0.05387841701014201 0.0 -0.03615518072358013 -0.026818269110533442 0.0 1.2252384640194611 -0.39884309070883817 0.0 1.1291768081981737 -0.7312125208630443 0.0 0.8707672046030084 0.7770450410406887 0.0 1.2315152162657477 0.39864675706596303 0.0 0.9103549468865484 0.1644922573652481 0.0 -0.03748627204571816 0.0684750671682847 0.0 0.9179448899831828 -0.1606769067442391 0.0 -0.03859923992562701 -0.06942551147211151 0.0 -0.030646675139572064 0.021472552271082 0.0 1.060506993647575 0.7276947758112078 0.0 0.44772676302941006 0.5310313843456781 0.0 0.5381491188119141 0.03178382490674478 0.0 0.07584089163465835 0.048743872606569594 0.0 0.5454652479533223 -0.030851511718527663 0.0 0.08183984585090291 -0.05117324047771066 0.0 -0.11099281867119676 0.005352350272453979 0.0 0.9689492623309914 0.29766264886179267 0.0 1.2523383518254079 0.24525632869463374 0.0 1.2959639732326547 0.20287550221039985 0.0 1.2261743186978888 -0.24399139138906192 0.0 1.2931933415351538 -0.19711499160716503 0.0 1.304839050039095 0.2534890362554867 0.0 1.3080493302625422 -0.24668656012043777 0.0 0.45010715416397834 -0.5514285691095779 0.0 0.8059706852855252 -0.1397521677772477 0.0 0.6794555982471352 -0.4202944848508493 0.0 0.891112283513059 0.5909387295089226 0.0 0.8031569673508714 0.13972433938989742 0.0 0.6842491710788081 0.4173444584596705 0.0 1.2802501901714753 -0.04566651492288049 0.0 0.1930435819584704 0.032897214386290764 0.0 0.20793766305630387 -0.02815322117890626 0.0 -0.08481724885300745 -0.03696717877608499 0.0 1.3022623610137103 0.42751835734568555 0.0 0.8788462982350508 0.0669785620771352 0.0 1.2979011730905248 -0.4337120148614755 0.0 0.8949623788451863 -0.060749706095914846 0.0 1.3328132528809582 0.35928269996073625 0.0 1.27036099440847 0.3451206773691627 0.0 1.3286933151737927 -0.3577712374874954 0.0 1.2616388821455145 -0.32692455335112763 0.0 0.5885104671538366 -0.16247368516756347 0.0 0.8034251259512365 -0.3302226114661271 0.0 1.0312608420484304 0.5957831577831451 0.0 0.5963090325996679 0.14838215188074785 0.0 0.8189460497504227 0.32682462065190493 0.0 0.8766449265669178 0.03594208520637953 0.0 0.9032248328971759 -0.026598879793164592 0.0 -0.03856269022448896 -0.06014241784468544 0.0 1.3092591651444163 0.1331353464162792 0.0 0.9343241994593187 -0.30539151448601914 0.0 1.2924319140227298 -0.11950463856160944 0.0 0.41112095451944547 0.02707223445140484 0.0 0.43818724702438305 -0.018921174832683976 0.0 -0.1253817096064814 -0.02954058730151308 0.0 1.062246770477832 0.32257496780208017 0.0 0.9524509244138116 0.3793007924576955 0.0 1.0309551425536068 0.07004134000608235 0.0 0.9231110011909919 -0.04867578495103572 0.0 1.273825634414705 0.055456008918062585 0.0 1.0336167070757467 -0.31797698431096155 0.0 1.0985846163695363 -0.5582577101726592 0.0 0.9404558642813455 -0.37992335846350955 0.0 1.012384924881632 -0.4249304812868334 0.0 0.9476473333051249 -0.5382597082954654 0.0 0.8746637284152377 -0.40188756429415073 0.0 1.3099983540759343 0.15559522210086105 0.0 1.3023276840951599 -0.14724990322976034 0.0 0.8563025484995125 -0.23051913550019465 0.0 0.8852399150381633 -0.30297417744125965 0.0 0.858905847442765 -0.29486854945204827 0.0 0.8536999583138349 -0.24564590700029887 0.0 0.8576450731596177 -0.2449451373153773 0.0 0.9023034238643407 -0.3089985419896426 0.0 1.3156793989946607 0.2269989508364264 0.0 1.175015741195965 -0.03995649446376859 0.0 1.3271613706363448 0.28776989714942364 0.0 1.307374259697074 -0.21012741041777722 0.0 0.0 0.0 0.0 0.0 0.0 0.0 1.310732787539025 -0.2770138845680661 0.0 0.7199134066370956 -0.2680926760404324 0.0 0.8246303099409262 -0.20974619693875335 0.0 0.873751271338152 -0.11006497188373035 0.0 0.8656148710637441 -0.16216376943435917 0.0 0.9375 0.0 0.0 0.7500000000000001 0.0 0.0 0.7275558446323753 0.2624452304126196 0.0 0.8281619580551555 0.19620974579319175 0.0 0.7499999999999999 0.0 0.0 0.8725722594159546 0.12449327868529086 0.0 0.9301544769862954 0.04087368376332254 0.0 0.850942404194551 0.04298139350836486 0.0 -0.09454542847215866 -0.04238697343530751 0.0 0.009807877001281735 -0.04103928922195711 0.0 1.1381648799293909 0.5370892299064424 0.0 1.0328985661035905 0.45837684256428196 0.0 0.8838648950646101 0.2377471939895663 0.0 1.2517750600274526 0.08482861546967888 0.0 1.3040596878045538 0.015378828588300558 0.0 0.2899361084554917 0.020031580682643477 0.0 1.3169520326291813 0.05053409637729148 0.0 0.8230289656758106 0.01539202841902881 0.0 1.2327622394896378 0.05483232923434668 0.0 0.5881092198701245 -0.011810605792064957 0.0 0.5528484789618875 0.0033174449459857577 0.0 -0.0010779168356995596 0.028347471861487557 0.0 1.0776788462222155 0.001003992331690991 0.0 0.23443459606533698 0.013677491986188225 0.0 0.14564673934810152 0.003853678165006874 0.0 0.2661453100626653 0.003951820093086468 0.0 0.7927054364669426 -0.03933796623366412 0.0 0.584213156322859 -0.021468173274477198 0.0 1.2985406786883795 -0.018975549692939724 0.0 0.6080058426622295 0.028865778681583704 0.0 1.2625298442691166 -0.08527420639558456 0.0 0.088205071496455 -0.04392166373685761 0.0 1.1519593218137643 0.11392491769110885 0.0 0.8853237509133661 0.17422897684784713 0.0 0.6961321537622941 -0.15611370261435054 0.0 1.0459148476202433 -0.05747719054057001 0.0 1.0180482168786635 -0.18417126147220741 0.0 0.866548569620286 -0.17933702931597628 0.0 0.8779032416092573 -0.0264753287612463 0.0 0.43286204448859744 -0.015677013224786943 0.0 0.24031006166859523 -0.020980878763661618 0.0 1.292529402309718 0.0025419434127151594 0.0 0.18984019248879833 -0.009249591031561668 0.0 1.3038952032815352 -0.035176426749269914 0.0 0.1415089252531841 -0.02237434621561882 0.0 0.6107011517035074 0.013522687050481026 0.0 -0.0736208225636876 -0.02680256404131096 0.0 0.6428969287529098 0.0012116984302818884 0.0 0.8843561639269613 0.28973853527704735 0.0 0.8878497012776677 0.4035492718760844 0.0 0.8864274735325672 0.2566209117403735 0.0 0.9140763519413567 0.1065756645469324 0.0 0.867130494282622 0.2143332257861958 0.0 0.9091551584046068 0.29296944202327646 0.0 0.8582899000144165 0.2227238860516887 0.0 0.8014875333309776 0.17319951574956435 0.0 0.8682562111539294 0.15557760956767977 0.0 0.0 0.0 0.0 0.8422444317552104 0.16930639331341316 0.0 0.873775210251583 0.166806646061576 0.0 1.1190637192082076 0.013361995389239883 0.0 1.2709032602657577 0.02357766727557801 0.0 1.0154211625856358 -0.02006364857354807 0.0 0.726384425816643 -0.0659488497163077 0.0 1.2146423866610727 0.0878868703027022 0.0 0.7162437803409093 -0.16469131241797733 0.0 1.1244295340766757 -0.11084252165302272 0.0 1.102265346899398 0.014101414106511822 0.0 1.2867050496937629 0.03194138505764011 0.0 0.690043152295516 0.03237629451651678 0.0 1.250756920588062 0.022646507123810722 0.0 1.0932356832343924 0.04630077884008901 0.0 -0.06529464422610656 -0.0070144852866312795 0.0 -0.19376138058751582 0.004789642530185303 0.0 0.9502516980545299 0.3260865566149283 0.0 1.009810450801212 -0.05574977409665906 0.0 0.5157864334286613 -0.038180168209596965 0.0 0.0 0.0 0.0 1.2229477618046996 -0.0029567923720132685 0.0 1.256135848863908 -0.01228238833091328 0.0 1.2346587055679954 0.05942838121479909 0.0 1.1056476239912947 -0.07294611127020356 0.0 0.45742280795542534 0.00811937082302997 0.0 1.2493652527865131 0.04967989139684852 0.0 1.2481957485206518 0.09575140068625022 0.0 -0.011899528500166219 -0.014610195144417581 0.0 -0.16884909097224504 -0.015278763900967496 0.0 -0.1576044429555914 -0.016468581565776876 0.0 -0.15556363373236187 0.012840002684379823 0.0 1.1523707618431747 0.16449991136204872 0.0 0.7729874422880889 0.18310047504276686 0.0 0.7776558307653438 0.14650535546466883 0.0 0.7858977781593083 0.10226584297271048 0.0 0.6178556317743802 0.10402836040594841 0.0 0.4058506339601174 -0.020705221643126357 0.0 0.07023275248539584 -0.003831110296611209 0.0 0.46203465445267855 -0.05729917758143388 0.0 0.9903385671197762 0.04199712135375608 0.0 0.0 0.0 0.0 0.6198252325201414 0.04287900468935637 0.0 1.050335380618158 0.06812885019174596 0.0 -0.22379907751429556 0.0017943500453171302 0.0 1.0797963118936387 0.22090805033918684 0.0 0.9013449927423174 0.10844536826773568 0.0 1.259508377610845 -0.09097954274403706 0.0 0.19230954595634847 0.007845431990942755 0.0 0.44162482328959995 0.04980244359421481 0.0 0.14833445859570935 0.014141650416358157 0.0 1.2645137913988898 0.07789823458075233 0.0 -0.21487987076176926 -0.0022867821355648512 0.0 -0.1730769607825999 -0.011045964583847547 0.0 -0.20351812532543198 -0.005584166681988711 0.0 -0.12963528685127218 0.013729308704614559 0.0 -0.19703791596990863 -0.0014127269107449365 0.0 -0.2329400466173571 0.0003647715009082185 0.0 -0.14478826455946012 0.004448571492258925 0.0 -0.11875064671518215 0.0010177303251464069 0.0 -0.2347621049784295 -0.0015280580850474106 0.0 0.06340185668953831 -0.01665229052715765 0.0 -0.11962384611386012 0.00785189836115826 0.0 -0.2299344811902387 -0.003088645702588296 0.0 -0.23492716631232954 -0.0021845863581434403 0.0 -0.0738522898357391 -0.014952773351020604 0.0 0.0 0.0 0.0 0.9372245072937528 0.22865741852398522 0.0 0.9517282764870449 0.03852537088738561 0.0 0.2599185932504047 -0.025456653756529692 0.0 0.33882254442202325 0.012058047897857294 0.0 0.660648953245447 0.05768014999905294 0.0 1.0351899159347944 0.08700656798791324 0.0 1.2269302028188007 0.0737408724518968 0.0 1.2495137575220066 -0.025028027490315505 0.0 0.08430258649033111 0.0181083904543359 0.0 -0.09957966461379063 -0.008231342674014673 0.0 0.021907790108370795 -0.03580230275307792 0.0 0.15844944396499314 -0.03214705036917502 0.0 0.15942913829793665 -0.04240977057465712 0.0 0.4084370666190856 -0.06124775942561449 0.0 0.7279188406412854 -0.10419289658596652 0.0 0.9977563615075158 -0.10168713252470707 0.0 0.48244369073826976 -0.0761008799438193 0.0 0.6942367405404719 -0.08210666449465041 0.0 0.8018658056413239 -0.09899139900877782 0.0 0.9145901928624193 -0.08725277024850922 0.0 0.3542330113605724 -0.07008646369252129 0.0 1.2450888851469135 -0.10618170822442557 0.0 1.148285656368004 -0.09764888948154785 0.0 1.2720618050231791 -0.06867540134963304 0.0 1.144533863960281 -0.0832300051913061 0.0 -0.07027069260345156 -0.026837595913683815 0.0 1.1224293017253708 -0.11676278513029675 0.0 1.153671200049213 -0.07038716180922665 0.0 1.104635250961259 -0.10111800153965819 0.0 -0.171339859943674 -0.005832817319825088 0.0 0.6045392871341478 -0.09756362221947802 0.0 1.1647340269487243 -0.1329033762665734 0.0 0.18940116479086264 -0.057098569028546424 0.0 -0.2124669419005203 -0.0009574159178839501 0.0 1.2146983871879904 -0.1273988914127987 0.0 0.11072039222880181 -0.05252580604980123 0.0 -0.1868585699509292 -0.007569344792168458 0.0 -0.043683780627092446 0.032040582853279764 0.0 0.0740236544088775 -0.04694384734545609 0.0 -0.09458201051785381 -0.022254274998253002 0.0 0.5663590995801185 -0.10152627400964231 0.0 -0.05201696901612768 -0.02778863083439532 0.0 0.21101334490784254 0.06314542789589168 0.0 -0.12533796918147175 0.01885702270590949 0.0 -0.08177711186442765 -0.015510339799208154 0.0 -0.13848825628137254 0.0028822900835428857 0.0 0.06598722644919834 0.04745822458875207 0.0 1.0695671102937914 0.09977316395210983 0.0 0.4455611227823314 0.08559972936781268 0.0 0.4424082550850844 -0.09188826487210984 0.0 0.3124238394175879 -0.037664706656802154 0.0 0.845860229589728 -0.06067391403654206 0.0 0.3599414770963282 0.029442037874736583 0.0 1.2117477445660256 0.09490398789742661 0.0 1.0147302443523443 0.11015742079761473 0.0 1.0440810784612706 -0.13591640851243117 0.0 -0.12133543243694485 -0.00024002765099737672 0.0 -0.11953818271746043 -0.01589907826619001 0.0 -0.21589300089588015 -0.00492096043428465 0.0 -0.09395116924095509 0.019437787270328674 0.0 -0.14418970495768196 -0.015471058546734119 0.0 0.44962470752270606 -0.08666866279119897 0.0 1.1986570926619513 -0.13072894091941586 0.0 0.7856705034670837 -0.1177664872303128 0.0 1.016239150454226 -0.13848483059748642 0.0 -0.020565654594632356 0.03438754666896252 0.0 0.1205058292241271 -0.053209587638865255 0.0 0.04101417328328134 -0.03214727772823619 0.0 0.33222573665940724 -0.07820712223195339 0.0 0.01608543972367996 -0.03342625876887172 0.0 1.142304274584351 0.13218063432099705 0.0 -0.05525196362084228 -0.0017697872789050823 0.0 0.04470291417746643 0.02275817323271265 0.0 -0.019755550232124077 0.0007804602045911356 0.0 0.1471294944688771 -0.04114142073457016 0.0 0.432059570531338 0.06297529725503659 0.0 0.8462396297839159 -0.12641720395973643 0.0 0.6690363794608708 -0.11415550489798845 0.0 0.9343538103552448 -0.12363473971680924 0.0 0.38464375214291846 -0.08436351929757825 0.0 0.9554070924932824 -0.1369580603532181 0.0 1.180001019620381 -0.13574824352121234 0.0 1.1375488114780312 -0.13346988146280633 0.0 1.126222513999321 -0.12493596754256454 0.0 0.7581677662298882 -0.12297969100478222 0.0 0.6722966573422119 -0.1143094059788245 0.0 0.5581826226363766 -0.09832830131588403 0.0 0.5268024235110532 -0.09813495858544113 0.0 0.25579904727583747 -0.06598043380082101 0.0 0.9281260540754795 -0.1318097977616854 0.0 0.32320879514587825 0.04469921581951555 0.0 0.742828696991896 0.08231291285753582 0.0 0.06457510966612286 0.025712352902428934 0.0 0.22403921593195686 0.05062647899303103 0.0 -0.1428117390052945 0.009840423511871536 0.0 1.2283129461752615 0.014862057771340382 0.0 1.078423692718925 0.06585392220763804 0.0 1.247809573336477 -0.049645927276864954 0.0 1.184073456088243 -0.09721611472771571 0.0 0.29529062946621365 -0.0673901730145752 0.0 0.5269152840295949 -0.08764596509655063 0.0 0.701229578967208 0.09744129805501914 0.0 0.1164770233927482 0.045781910673744645 0.0 1.194922889133667 0.03808587811950228 0.0 1.2355464001842773 -0.06982631892448761 0.0 0.6860690184801699 0.11774468662230726 0.0 1.187829168349889 -0.1092538042522463 0.0 0.7286951409931544 0.09192213459857058 0.0 1.232536348016208 0.11125407779571947 0.0 0.44286905936491344 0.07908106265228683 0.0 0.8530063722095397 0.11954267203483802 0.0 1.2165370274727156 0.058660632531146964 0.0 1.0984940218205212 -0.05248086750676473 0.0 1.17090912063362 -0.1164761421433665 0.0 0.9602639374402412 0.11340135162696877 0.0 1.1229410261357318 0.1293344515094116 0.0 1.1649772947416677 0.11895142502578125 0.0 1.1802454309575514 0.13456433528085382 0.0 1.1490512746083468 0.14348521601257588 0.0 1.0729715313895998 0.13402972332551294 0.0 0.8222852237878124 0.12508797670191044 0.0 1.099903777655263 -0.11132977113957279 0.0 0.0 0.0 0.0 1.1649953458066316 0.08875920476101436 0.0 1.0242557135561563 0.14297766421122052 0.0 0.4515444162283428 0.09202561373085423 0.0 1.1737729376271377 0.10475739838821284 0.0 1.0148741597659598 0.14042170399005507 0.0 1.1982318920309325 0.12990291682650626 0.0 0.7560882976158134 0.12385051711948165 0.0 1.16035767418404 0.13470042776893118 0.0 0.713120084693685 0.12245591055109677 0.0 0.37677279759845744 0.08738683882855579 0.0 1.1465104692873402 0.14460970156548958 0.0 0.8183488777809035 0.13168272476394913 0.0 1.1058510834052881 0.1453584417694706 0.0 0.9691910646208608 0.14288318274092754 0.0 0.9146519406559676 0.1377228404434889 0.0 1.1906432127623972 0.1336818656777535 0.0 1.1490412668689671 0.14027758768214788 0.0 1.154035245162568 0.11427299429708633 0.0 0.23842772096278905 0.0695095401109839 0.0 0.929845245460272 0.09029860543215364 0.0 1.1528223815002916 0.13996205096515943 0.0 1.1326802832371914 0.14119217534382783 0.0 1.1037880685788735 0.11965508269039239 0.0 1.1218541972694545 0.12793720611820272 0.0 1.1281276721835267 0.11667106205079569 0.0 0.9925083728126132 0.08524957054075001 0.0 1.0237280920331946 0.13502830658747714 0.0 1.0234543637770206 0.10470051141699588 0.0 1.109147104233176 0.11636786312099703 0.0 0.8160294056405487 0.07214244693986607 0.0 1.1157467826631988 0.13217723546780213 0.0 1.0810243192940403 0.12688686334755606 0.0 1.0889338160242041 0.14054981151435628 0.0 1.0291430781085127 0.10411886176486622 0.0 0.0 0.0 0.0 0.6487271701696911 -0.007457688937643852 0.0 1.0909231930974612 0.4093437703477699 0.0 1.1829797969295934 0.38592675844817326 0.0 1.098368379508838 -0.40284443354682603 0.0 0.8597356049974948 -0.20705357416095266 0.0 0.9713831358191234 -0.22491652573252732 0.0 0.8937411424471127 -0.08358807140198657 0.0 1.2590544436452733 -0.012146606699583624 0.0 1.1655293191273712 -0.025772313116985475 0.0 1.2496927948640448 -0.055909485446361304 0.0 1.1783258064856517 -0.03747749098902058 0.0 1.2196572166169843 -0.010958847431027558 0.0 -0.1428726303320864 -0.009231807371896874 0.0 -0.13401300205120623 0.023243187174965794 0.0 -0.07396014535439967 0.02104632277525626 0.0 -0.0778939296674126 0.038456875111615454 0.0 0.06616647204071513 0.03601730959035768 0.0 -0.11596745415570087 0.029576446573894268 0.0 -0.03877669277890722 0.05712971520418839 0.0 0.08957613116652617 0.044491525779391784 0.0 -0.03296417535925159 0.06931765206115464 0.0 -0.08168717113268338 0.04609498315073118 0.0 0.9884053189998787 0.11769652157237226 0.0 -0.12425579110837708 0.018972232495648188 0.0 1.1817628681603143 -0.1320858054864275 0.0 1.1588765667790053 -0.14036743884991915 0.0 1.0516523531925444 -0.1408882785775778 0.0 1.1301463687148174 -0.14136960865581977 0.0 1.1336313712112727 -0.11957326292668372 0.0 1.020194742499639 -0.13853709542193177 0.0 1.1485313444266962 -0.12710681689544606 0.0 1.1074374792098758 -0.13676773375519224 0.0 1.1353755230892333 -0.13803672917854207 0.0 0.9797348883762862 -0.1257196701341796 0.0 1.011495661346821 -0.1319568629576454 0.0 0.7953611659218804 -0.11727606763674125 0.0 1.1106291103420587 -0.12993858202966457 0.0 1.1179190594979203 -0.1116033604970873 0.0 1.089110629275445 -0.12239863328270077 0.0 0.9492844680935025 -0.08863205720225842 0.0 1.1281074260056678 -0.12029747284579292 0.0 0.8422005424148055 -0.10864314942459627 0.0 1.108605857847277 -0.11248048255675783 0.0 1.0212120190770513 -0.1156285395030004 0.0 0.8032869204603805 -0.09327899160396888 0.0 0.9509829464868802 -0.09073878183405784 0.0 0.8810494811091245 -0.10463714897185222 0.0 0.4182927859799139 -0.06398334457559327 0.0 0.9804348083160799 -0.10449211422098843 0.0 0.6577373376054657 -0.08681555146841362