<?xml version="1.0"?>
<VTKFile type="UnstructuredGrid"  version="0.1"  >
<UnstructuredGrid>
<Piece  NumberOfPoints="1289" NumberOfCells="2413">
<Points>
<DataArray  type="Float64"  NumberOfComponents="3"  format="ascii">0 0 0  0 0.41 0  2.2 0.41 0  2.2 0 0  0.1 0.1 0  0.1 0.3 0  0.8 0.3 0  0.8 0.1 0  0.25 0.2 0  0.248976 0.210065 0  0.245948 0.219718 0  0.241038 0.228563 0  0.234448 0.23624 0  0.226448 0.242432 0  0.217365 0.246888 0  0.207571 0.249423 0  0.197468 0.249936 0  0.187467 0.248404 0  0.17798 0.24489 0  0.169395 0.239539 0  0.162062 0.232569 0  0.156283 0.224265 0  0.152293 0.214968 0  0.150257 0.205058 0  0.150257 0.194942 0  0.152293 0.185032 0  0.156283 0.175735 0  0.162062 0.167431 0  0.169395 0.160461 0  0.17798 0.15511 0  0.187467 0.151596 0  0.197468 0.150064 0  0.207571 0.150577 0  0.217365 0.153112 0  0.226448 0.157568 0  0.234448 0.16376 0  0.241038 0.171437 0  0.245948 0.180282 0  0.248976 0.189935 0  1.1 0 0  1.1 0.41 0  0.1 0.2 0  0.45 0.1 0  0.45 0.3 0  0.55 0 0  0.275 0.1 0  0.275 0.3 0  0.275 0 0  0.55 0.41 0  0 0.205 0  0.825 0 0  0.825 0.41 0  0.275 0.41 0  0.1 0.15 0  0.1875 0.1 0  0.1 0.25 0  0.1875 0.3 0  0.132322 0.2 0  0.241426 0.253518 0  0.241426 0.146482 0  0.264574 0.17974 0  0.264574 0.22026 0  0.138434 0.187348 0  0.153372 0.150948 0  0.148413 0.164094 0  0.176495 0.136535 0  0.22768 0.143571 0  0.138434 0.212652 0  0.148413 0.235906 0  0.176495 0.263465 0  0.22768 0.256429 0  0.23125 0.3 0  0.24769 0.24094 0  0.23125 0.1 0  0.24769 0.15906 0  0.26253 0.193641 0  0.190482 0.137872 0  0.166753 0.146661 0  0.157737 0.244461 0  0.190482 0.262128 0  0.203107 0.261264 0  0.253635 0.22977 0  0.203107 0.138736 0  0.253635 0.17023 0  0.261028 0.206206 0  0.167707 0.251809 0  0.143629 0.224191 0  0.215302 0.2591 0  0.270465 0.245894 0  0.215302 0.1409 0  0.270465 0.154106 0  0.284052 0.202587 0  0.14375 0.3 0  0.209375 0.3 0  0.225966 0.278501 0  0.209375 0.1 0  0.225966 0.121499 0  0.211613 0.273759 0  0.211613 0.126241 0  0.143629 0.175809 0  0.1 0.175 0  0.133484 0.164832 0  0.144491 0.249539 0  0.1 0.225 0  0.133484 0.235168 0  0.3625 0.3 0  0.25691 0.253381 0  0.25691 0.146619 0  0.277205 0.188698 0  0.184724 0.275712 0  0.237372 0.268285 0  0.184724 0.124288 0  0.237372 0.131715 0  0.197578 0.273149 0  0.193656 0.286994 0  0.197578 0.126851 0  0.193656 0.113006 0  0.122953 0.187671 0  0.118362 0.153758 0  0.155372 0.258107 0  0.122953 0.212329 0  0.118362 0.246242 0  0.276394 0.27264 0  0.276394 0.12736 0  0.280965 0.170013 0  0.253125 0.3 0  0.14375 0.1 0  0.253125 0.1 0  0.269489 0.26014 0  0.269489 0.13986 0  0.303639 0.184297 0  0.165625 0.3 0  0.134742 0.273113 0  0.257831 0.274737 0  0.255279 0.128499 0  0.3625 0.1 0  0.165625 0.1 0  0.162031 0.132368 0  0.134955 0.126405 0  0.149334 0.125568 0  0.142936 0.139597 0  0.12695 0.140259 0  0.242514 0.285501 0  0.242514 0.114499 0  0.1 0.125 0  0.117483 0.12555 0  0.11154 0.139776 0  0.121875 0.1 0  0.109143 0.1125 0  0.126805 0.114 0  0.220313 0.29129 0  0.351562 0.287369 0  0.207222 0.2866 0  0.220312 0.10871 0  0.1375 0 0  0.20625 0 0  0.207222 0.1134 0  0.11722 0.17118 0  0.1 0.1625 0  0.0778409 0.16875 0  0.0862762 0.15625 0  0 0.15375 0  0 0.1025 0  0.11722 0.22882 0  0.1 0.2375 0  0 0.3075 0  0.0862762 0.23125 0  0.0598995 0.222547 0  0.0860223 0.2125 0  0.289584 0.181469 0  0.300267 0.16446 0  0.163832 0.269071 0  0.149597 0.273325 0  0.1 0.275 0  0.268498 0.285953 0  0.31875 0.3 0  0.294154 0.254672 0  0.296875 0.3 0  0.293558 0.271845 0  0.285095 0.286799 0  0.324298 0.264316 0  0.307866 0.263745 0  0.317093 0.234901 0  0.315485 0.281219 0  0.316547 0.250625 0  0.344693 0.243731 0  0.331592 0.251147 0  0.35129 0.270663 0  0.338689 0.263683 0  0.340625 0.3 0  0.249849 0.264383 0  0.265097 0.11422 0  0.284688 0.156136 0  0.242188 0.324017 0  0.0856613 0.2625 0  0.132812 0.0612217 0  0.264062 0.0612217 0  0.198437 0.07598340000000001 0  0.0860223 0.1375 0  0.0794526 0.191089 0  0.285228 0.140397 0  0.298655 0.148737 0  0.31875 0.1 0  0.327335 0.15374 0  0.296875 0.1 0  0.312289 0.155283 0  0.313348 0.135607 0  0.321802 0.173916 0  0.298433 0.134116 0  0.112124 0.2625 0  0.127526 0.259083 0  0.121875 0.3 0  0.0682687 0.241503 0  0.1 0.2875 0  0.117762 0.28125 0  0.107813 0.3 0  0.103906 0.313849 0  0.0778409 0.28125 0  0.1375 0.41 0  0.0862762 0.29375 0  0.08886860000000001 0.24375 0  0.307812 0.338778 0  0.307812 0.292227 0  0.33216 0.279164 0  0.387888 0.266414 0  0.264063 0.31948 0  0.110937 0.07598340000000001 0  0.242188 0.07598340000000001 0  0.319914 0.11839 0  0.340625 0.1 0  0.334448 0.133793 0  0.329687 0.108539 0  0.346259 0.118491 0  0.360334 0.173636 0  0.327539 0.205033 0  0.132812 0.288712 0  0.362436 0.278836 0  0.368105 0.259418 0  0.4125 0.41 0  0.329687 0.324017 0  0.329687 0.292306 0  0.285938 0.318952 0  0.417187 0.338778 0  0.324481 0.14148 0  0.351562 0.106771 0  0.40625 0.1 0  0.341028 0.168342 0  0.319221 0.190479 0  0.335292 0.184501 0  0.305563 0.20794 0  0.220313 0.31948 0  0.132812 0.332772 0  0.0865876 0.311259 0  0.0598995 0.302453 0  0.0906541 0.343255 0  0.353543 0.255837 0  0.36574 0.237633 0  0.405007 0.254279 0  0.275795 0.352123 0  0.4125 0 0  0.35493 0.137394 0  0.366563 0.120618 0  0.35917 0.205246 0  0.198438 0.318952 0  0.0626109 0.263892 0  0.40625 0.3 0  0.354809 0.155936 0  0.386512 0.146872 0  0.373101 0.159939 0  0.384375 0.1 0  0.343394 0.19929 0  0.350682 0.185683 0  0.368101 0.189748 0  0.344016 0.221511 0  0.391108 0.213329 0  0.376279 0.204783 0  0.398843 0.182768 0  0.375804 0.222746 0  0.390665 0.196958 0  0.394004 0.23518 0  0.359883 0.222828 0  0.419908 0.204359 0  0.404243 0.204783 0  0.412615 0.224526 0  0.20625 0.41 0  0.165625 0.325257 0  0.0347982 0.244954 0  0.379558 0.247154 0  0.34165 0.147603 0  0.372264 0.136992 0  0.388988 0.121989 0  0.373437 0.108554 0  0.351562 0.31948 0  0.391367 0.16527 0  0.399572 0.223324 0  0.452011 0.227371 0  0.40877 0.239392 0  0.431491 0.237337 0  0.421224 0.250459 0  0.449619 0.262098 0  0.418865 0.276779 0  0.437063 0.252274 0  0.415673 0.263227 0  0.430988 0.266772 0  0.402767 0.273419 0  0.452967 0.244883 0  0.428125 0.3 0  0.408502 0.286186 0  0.384375 0.3 0  0.392267 0.285807 0  0.465927 0.219339 0  0.43489 0.283846 0  0.376424 0.286289 0  0.625 0.3 0  0.473533 0.205186 0  0.461713 0.255517 0  0.5375 0.3 0  0.465725 0.235405 0  0.44631 0.201425 0  0.471875 0.3 0  0.494307 0.227729 0  0.459448 0.206736 0  0.462294 0.180792 0  0.478933 0.227536 0  0.486793 0.21381 0  0.486322 0.251373 0  0.50065 0.215318 0  0.54005 0.175389 0  0.474633 0.189893 0  0.512916 0.208697 0  0.49531 0.199967 0  0.475889 0.175275 0  0.625 0.1 0  0.459311 0.153933 0  0.513645 0.242704 0  0.392892 0.248539 0  0.374815 0.271913 0  0.365974 0.14871 0  0.395312 0.109184 0  0.417061 0.123981 0  0.483196 0.277003 0  0.381967 0.179632 0  0.429898 0.219374 0  0.433473 0.206165 0  0.43149 0.181038 0  0.444208 0.215487 0  0.472985 0.247309 0  0.49375 0.3 0  0.475579 0.262714 0  0.49916 0.274293 0  0.501175 0.184809 0  0.514164 0.225681 0  0.543648 0.214977 0  0.5341630000000001 0.23481 0  0.527396 0.216171 0  0.5375 0.1 0  0.534548 0.202315 0  0.561545 0.192513 0  0.5494289999999999 0.201221 0  0.570923 0.218346 0  0.412582 0.149833 0  0.489327 0.264745 0  0.502439 0.254775 0  0.462391 0.271166 0  0.496775 0.241732 0  0.5294410000000001 0.268606 0  0.482812 0.291099 0  0.46879 0.285038 0  0.452663 0.284065 0  0.51789 0.257882 0  0.53408 0.252026 0  0.560142 0.243543 0  0.545708 0.243474 0  0.547532 0.229019 0  0.55282 0.265323 0  0.398971 0.153424 0  0.400349 0.135684 0  0.410135 0.168145 0  0.428823 0.161323 0  0.415266 0.183779 0  0.329687 0.0810483 0  0.395312 0.0612217 0  0.373437 0.318952 0  0.439062 0.324017 0  0.561816 0.229354 0  0.585029 0.239287 0  0.431827 0.139854 0  0.446796 0.168929 0  0.351562 0.07598340000000001 0  0.395313 0.318944 0  0.54337 0.150762 0  0.460937 0.31948 0  0.418412 0.137529 0  0.428125 0.1 0  0.442783 0.152332 0  0.450742 0.134294 0  0.373437 0.0805201 0  0.384383 0.342558 0  0.482812 0.318952 0  0.429239 0.127457 0  0.444274 0.117405 0  0.426548 0.113815 0  0.49375 0.1 0  0.488954 0.113984 0  0.457973 0.121842 0  0.471621 0.137346 0  0.515625 0.325257 0  0.48125 0.41 0  0.417187 0.07598340000000001 0  0.496363 0.126778 0  0.479043 0.155715 0  0.439062 0.0805201 0  0.481795 0.126919 0  0.471875 0.1 0  0.489227 0.142159 0  0.515625 0.1 0  0.520062 0.147117 0  0.501244 0.161791 0  0.505431 0.112984 0  0.505344 0.14029 0  0.526563 0.119081 0  0.5181750000000001 0.131908 0  0.539868 0.136937 0  0.460937 0.108383 0  0.474242 0.114415 0  0.460937 0.0810483 0  0.487841 0.167168 0  0.526563 0.0612217 0  0.526563 0.106406 0  0.537619 0.112743 0  0.58125 0.1 0  0.559375 0.1 0  0.482812 0.08105569999999999 0  0.471883 0.0587655 0  0.570312 0.129396 0  0.548437 0.07598340000000001 0  0.504687 0.08105569999999999 0  0.49375 0.0470127 0  0.570312 0.112663 0  0.592798 0.12103 0  0.553986 0.12103 0  0.570312 0.0805201 0  0.48125 0 0  0.114787 0.2 0  0.160769 0.284765 0  0.175816 0.288361 0  0.162602 0.116048 0  0.154687 0.07598340000000001 0  0.176562 0.0805201 0  0.0598995 0.147547 0  0.307812 0.109924 0  0.291279 0.117157 0  0.278491 0.112989 0  0.285937 0.07598340000000001 0  0.307812 0.0805201 0  0.296928 0.196743 0  0.318141 0.218507 0  0.330208 0.227509 0  0.301397 0.225668 0  0.302706 0.241401 0  0.292574 0.21424 0  0.282762 0.230935 0  0.284351 0.244775 0  0.269553 0.23261 0  0.278572 0.217242 0  0.226924 0.342606 0  0.446928 0.185396 0  0.515625 0.3 0  0.504687 0.288879 0  0.515256 0.276534 0  0.529479 0.285328 0  0.58125 0.3 0  0.541969 0.272936 0  0.559375 0.3 0  0.556796 0.282529 0  0.543473 0.287206 0  0.581429 0.267774 0  0.566728 0.271171 0  0.570869 0.255585 0  0.577404 0.283865 0  0.603125 0.3 0  0.597531 0.28035 0  0.570312 0.338778 0  0.592188 0.292492 0  0.603513 0.256094 0  0.614063 0.286265 0  0.610329 0.27064 0  0.632708 0.251285 0  0.657223 0.261594 0  0.618789 0.257807 0  0.614188 0.22987 0  0.630935 0.265614 
[...]
<PointData  Vectors="v"> 
	<DataArray  type="Float64"  Name="v"  NumberOfComponents="3" format="ascii">
0.0 0.0 0.0 0.0 0.0 0.0 0.0 0.0 0.0 0.0 0.0 0.0 0.7989135710037022 -0.18792681294780392 0.0 0.8424215409187773 0.19940170204181082 0.0 1.0266160786712868 -0.03172610438006416 0.0 0.9709175190987833 0.02863400586075367 0.0 0.0 0.0 0.0 0.0 0.0 0.0 0.0 0.0 0.0 0.0 0.0 0.0 0.0 0.0 0.0 0.0 0.0 0.0 0.0 0.0 0.0 0.0 0.0 0.0 0.0 0.0 0.0 0.0 0.0 0.0 0.0 0.0 0.0 0.0 0.0 0.0 0.0 0.0 0.0 0.0 0.0 0.0 0.0 0.0 0.0 0.0 0.0 0.0 0.0 0.0 0.0 0.0 0.0 0.0 0.0 0.0 0.0 0.0 0.0 0.0 0.0 0.0 0.0 0.0 0.0 0.0 0.0 0.0 0.0 0.0 0.0 0.0 0.0 0.0 0.0 0.0 0.0 0.0 0.0 0.0 0.0 0.0 0.0 0.0 0.0 0.0 0.0 0.0 0.0 0.0 0.0 0.0 0.0 0.0 0.0 0.0 0.0 0.0 0.0 0.7660995818220506 -0.0012338073292130125 0.0 1.2161368299141837 0.12422394187690944 0.0 1.231703021560995 -0.11800026172527968 0.0 0.0 0.0 0.0 1.303523481356074 -0.07466265322398949 0.0 1.3170006901576818 0.09260731530079103 0.0 0.0 0.0 0.0 0.0 0.0 0.0 1.0 0.0 0.0 0.0 0.0 0.0 0.0 0.0 0.0 0.0 0.0 0.0 0.848562592176945 -0.22797649711292517 0.0 1.1566967154265488 -0.30063753324276044 0.0 0.8695314333731694 0.2257666150811993 0.0 1.1713117791933854 0.3100292631091106 0.0 0.4332388595271267 -0.004254886226540745 0.0 0.16701369193568097 0.028029176980460844 0.0 0.1735051957682074 -0.02174117780252406 0.0 -0.045423643981387894 -0.06233132700983597 0.0 -0.04829298853683335 0.06511033776267193 0.0 0.3391592678532051 -0.28211316917946216 0.0 0.8750050733186083 -0.6720080530186089 0.0 0.6522641869985423 -0.6939158582743422 0.0 1.2453289768910825 -0.6021848560333499 0.0 0.3055876251697973 0.004386826322089187 0.0 0.3350560379741187 0.2701778148943902 0.0 0.6541439100689547 0.6737426750043196 0.0 1.2230867168873374 0.6045751785193181 0.0 0.29230443410242024 0.0014929603419420185 0.0 1.2850467538323351 0.19494554781852952 0.0 -0.01906737173852499 0.054968029580514985 0.0 1.2747419110872853 -0.17428211561456167 0.0 -0.015418131785238787 -0.05160096022371383 0.0 -0.034856578171494935 -0.02448656498667168 0.0 1.2268600323045546 -0.39791225181529544 0.0 1.1302173685901036 -0.7302798429631085 0.0 0.8729212862917262 0.7791572292971783 0.0 1.233795397430294 0.3999414640156272 0.0 0.9118641176452807 0.16553926353294482 0.0 -0.03655461191299978 0.06976369101916502 0.0 0.9200626218802078 -0.15955566241721061 0.0 -0.036817971601306544 -0.06690312954873182 0.0 -0.029559167341473673 0.023521185059857463 0.0 1.0627700394880748 0.729550531702653 0.0 0.44920553697855914 0.5332450318657087 0.0 0.5389732214758807 0.032767751067776414 0.0 0.07655663330769251 0.05011125409839902 0.0 0.5479223183086921 -0.029499015533442953 0.0 0.08354725817515067 -0.04867158016609909 0.0 -0.10945491954978408 0.007397799799286853 0.0 0.9711964177997335 0.29917383891717225 0.0 1.2549908567436423 0.2472375400362763 0.0 1.2978368118706256 0.2049288986139207 0.0 1.2279934581754237 -0.24268912251407598 0.0 1.294688354513001 -0.1954738724024221 0.0 1.306856395274006 0.2552543833980065 0.0 1.3097182881972294 -0.24524249813665241 0.0 0.4507122049858193 -0.5498235998253346 0.0 0.8071921494802206 -0.1380223331689917 0.0 0.6807113239402552 -0.41851645081699534 0.0 0.8930725783689306 0.5927415217098454 0.0 0.8045939504874783 0.14156568010724152 0.0 0.6859074700232984 0.4193551600558618 0.0 1.2812505806108851 -0.04494345626117977 0.0 0.19329213411912455 0.034218184929373896 0.0 0.20982502633954772 -0.026050040746699754 0.0 -0.08311663259431647 -0.03467828648489013 0.0 1.3047530232652196 0.429130959260057 0.0 0.8787327954632854 0.06836995958152245 0.0 1.2993997035016165 -0.43269327427199183 0.0 0.8967638932154787 -0.059096529296694754 0.0 1.3352345759872621 0.3609745045175488 0.0 1.2728777574153816 0.3468475323528956 0.0 1.3304398430585733 -0.3564913942233936 0.0 1.2633784984238008 -0.32564646465046526 0.0 0.5896795226970434 -0.16060291007307456 0.0 0.8046917810128079 -0.3286158834687417 0.0 1.0334273536687444 0.5975596309186926 0.0 0.5975840039859562 0.15028506553444732 0.0 0.8205861467183134 0.32859746092998526 0.0 0.8759041616849889 0.03715741228622315 0.0 0.9039119032122128 -0.02520837880495385 0.0 -0.036763681194907895 -0.0577916754345344 0.0 1.3115426738589795 0.1360529605770222 0.0 0.935878504883059 -0.30406822250759175 0.0 1.2937264652359979 -0.11822057778325912 0.0 0.4109562109166352 0.028500044847413173 0.0 0.43948550962880567 -0.017021484118521935 0.0 -0.12354892898380368 -0.0277376107479018 0.0 1.0646954681220562 0.32404013329715575 0.0 0.9542662969993904 0.38080806109077225 0.0 1.0306374114348358 0.07174088486249555 0.0 0.9245781231241543 -0.047025065187709096 0.0 1.2755479770214873 0.05481493586134697 0.0 1.0352201690751386 -0.31681359357594996 0.0 1.100001062351633 -0.5569844733794064 0.0 0.9419220578332245 -0.3784834465117425 0.0 1.0138647598977715 -0.42370552305810316 0.0 0.9488581812468948 -0.5368951897915745 0.0 0.875953761584207 -0.4003332644989842 0.0 1.312011479415208 0.15800580368923903 0.0 1.3035552191777782 -0.14571935523643323 0.0 0.8577139274351823 -0.22914055994933402 0.0 0.8866371684202086 -0.30146967476679687 0.0 0.8602054782980408 -0.2934014902672944 0.0 0.855284631594076 -0.2443038848856814 0.0 0.8591782533837167 -0.2434633668297486 0.0 0.9038451457605757 -0.30754020233285073 0.0 1.3182004833164975 0.22905844541316742 0.0 1.175402346918749 -0.038927476272174605 0.0 1.3296910203720853 0.2895862073594274 0.0 1.3089338653407157 -0.208839920764981 0.0 0.0 0.0 0.0 0.0 0.0 0.0 1.312358352614673 -0.27577788067905445 0.0 0.7211477203464173 -0.26634759402602276 0.0 0.8259846267976787 -0.2081502770863018 0.0 0.8749672557778864 -0.10881846200866714 0.0 0.8669886143528874 -0.16084671436415462 0.0 0.9375 0.0 0.0 0.7500000000000001 0.0 0.0 0.7289716467859068 0.2642244345507731 0.0 0.8297073468645074 0.19796778896935324 0.0 0.7499999999999999 0.0 0.0 0.8740273664806897 0.12580130994361893 0.0 0.9315643009578088 0.04203081136522275 0.0 0.8522582778591355 0.04440913589980085 0.0 -0.09275868752751448 -0.04029721039954314 0.0 0.011487028400094482 -0.03916497024771939 0.0 1.140521063406898 0.5388981992245081 0.0 1.0349531587902376 0.459855144393938 0.0 0.8853437658801848 0.23920507086450885 0.0 1.252494186905358 0.08674552596399596 0.0 1.3044059091762579 0.016355982671543253 0.0 0.2905995967271078 0.021212567214391524 0.0 1.3180801579395183 0.05159798670608443 0.0 0.8225317993904808 0.016119475202777723 0.0 1.2328390859272478 0.05606998018185807 0.0 0.5887403445238352 -0.010694703570041583 0.0 0.5531613789679537 0.0042071556203124374 0.0 0.0006955654167188361 0.029878381886137305 0.0 1.0773972490111452 0.0016642876640724873 0.0 0.2356853058581877 0.01494092841426346 0.0 0.14742131767111966 0.005543779917308577 0.0 0.267632555628691 0.005405385640397527 0.0 0.7934809838962846 -0.037884637493762925 0.0 0.5851452038831362 -0.020078263144766573 0.0 1.2989177580453724 -0.018243543690538745 0.0 0.6074614534977477 0.03030120646369885 0.0 1.263420249976689 -0.0840892680475918 0.0 0.0896477631352642 -0.041780344519193074 0.0 1.1534079552885448 0.11705378812116563 0.0 0.886822141118324 0.17559681630583887 0.0 0.6977515844330814 -0.15493979374243172 0.0 1.047477324689885 -0.05649719644417348 0.0 1.019980605489987 -0.18294774218007534 0.0 0.8678602230591127 -0.1780741918188041 0.0 0.8792405488867131 -0.025156525850584997 0.0 0.43355314953603774 -0.01393537308884846 0.0 0.24113014024651233 -0.019375204991421164 0.0 1.2937157006752091 0.0025108095274608802 0.0 0.19033084890391824 -0.008537615955730864 0.0 1.304735326253105 -0.03469392443111701 0.0 0.14254207347315384 -0.021136290097718002 0.0 0.609875486885636 0.014149481226646395 0.0 -0.07195566340243421 -0.025409307438793823 0.0 0.6426794029642089 0.002266689509856719 0.0 0.885913432759379 0.29135736435815407 0.0 0.8895810126622687 0.40532066205945316 0.0 0.8883608357246761 0.2580422037043318 0.0 0.9155700908273423 0.1076555089966177 0.0 0.8686138906949377 0.2157022562704181 0.0 0.9108377257647892 0.2945141981493662 0.0 0.8598163754528118 0.22402227669040892 0.0 0.8030314802402687 0.1745189959413352 0.0 0.8695986325094103 0.15678602509666684 0.0 0.0 0.0 0.0 0.8434002367061838 0.17030955094139297 0.0 0.8752444359200376 0.1680715266462136 0.0 1.1220695060793036 0.01500532567688753 0.0 1.2709833848339862 0.023922741601404496 0.0 1.0155041677180727 -0.01914816191945117 0.0 0.7275006652707665 -0.06434692491623849 0.0 1.216232855372328 0.09091795248307187 0.0 0.7175955278734857 -0.16356713770311343 0.0 1.1260642458122607 -0.1096818571608762 0.0 1.1017009006473788 0.014001366078774915 0.0 1.2882517207685513 0.03150183412698009 0.0 0.688397586117685 0.03248178853178964 0.0 1.2514617211736223 0.022139437867828415 0.0 1.092206357218286 0.045775003105865596 0.0 -0.06455679464899383 -0.006414323724439832 0.0 -0.19195566733526143 0.006363244383651563 0.0 0.9521210570221353 0.32737975832582344 0.0 1.0106662254989893 -0.05428951277665812 0.0 0.5170966545572314 -0.036459590379136125 0.0 0.0 0.0 0.0 1.224880983549629 -0.0022907849545202984 0.0 1.2561349835669549 -0.011832088801285615 0.0 1.2365097799584395 0.06159316984377618 0.0 1.1085950046732798 -0.0715551179283808 0.0 0.4566869952950607 0.00855230180148475 0.0 1.2501943693797104 0.048946774415610364 0.0 1.2500273830106994 0.09623289292510889 0.0 -0.01078253565711534 -0.013806208064408255 0.0 -0.16708942516451591 -0.013719266591860424 0.0 -0.1560820866017889 -0.01524288325106745 0.0 -0.15372082560882463 0.014601696053035771 0.0 1.1545050535445505 0.1669401590032284 0.0 0.7749922921870475 0.18450419162000814 0.0 0.7788269798863156 0.1475442120755418 0.0 0.7871578625526269 0.10328343520951648 0.0 0.6193967928695694 0.1052414001866734 0.0 0.40723244564676403 -0.01914643469735319 0.0 0.07196170209192189 -0.0022247456548260334 0.0 0.46333959498474797 -0.05608561405940018 0.0 0.9934035175154579 0.044315701718531296 0.0 0.0 0.0 0.0 0.6179798646251667 0.042661025962631265 0.0 1.0487686526668767 0.06790787459192613 0.0 -0.2223135921941284 0.003109613788789476 0.0 1.082374225420727 0.22263383535808015 0.0 0.902743602545809 0.1094809751985961 0.0 1.2614306598535736 -0.08900193893154607 0.0 0.1923117027107694 0.00798315708299732 0.0 0.44028208239465844 0.049715493844837255 0.0 0.1481299194947779 0.014240888570085002 0.0 1.2663249940106227 0.07830839556937237 0.0 -0.21333735901745557 -0.001020651462240987 0.0 -0.17180815914961828 -0.010040598489864999 0.0 -0.20256958176755974 -0.004677817733839249 0.0 -0.1278105511878065 0.015292880768497224 0.0 -0.195875326662008 -0.0002953564815524071 0.0 -0.23179037312500414 0.001456970980461199 0.0 -0.14473348214763937 0.005092721760992523 0.0 -0.11718002941959718 0.0024832521777480667 0.0 -0.23407798755417467 -0.0005875866049071891 0.0 0.06484501494636521 -0.015350818569540459 0.0 -0.1179687645981849 0.009293865383805097 0.0 -0.2293529502443731 -0.002259848189682754 0.0 -0.23416520378387068 -0.001233905035981947 0.0 -0.07264302303295482 -0.01391021490355396 0.0 0.0 0.0 0.0 0.9399055894049072 0.2301708596901345 0.0 0.9530874081450865 0.03972291595186889 0.0 0.26142603216848553 -0.023883296732564594 0.0 0.33837455429732993 0.01224239967222057 0.0 0.6586280548004754 0.05744461641843513 0.0 1.0338155275919885 0.08709156695441635 0.0 1.2273532736830535 0.0736815521877515 0.0 1.251183953231197 -0.024552690506683635 0.0 0.0839067436312807 0.018362544554282142 0.0 -0.09827876333781961 -0.007020429960233647 0.0 0.02320166137868118 -0.03498721571839904 0.0 0.15988569894828655 -0.030922578743163884 0.0 0.16087026998211248 -0.04146479087336322 0.0 0.4098082751608941 -0.060268370613167484 0.0 0.7293757804796859 -0.10370342216614421 0.0 0.9989285893392919 -0.10083812052297172 0.0 0.4838275771450335 -0.07548180478455427 0.0 0.6953538729899731 -0.08113659276453651 0.0 0.8029525109901129 -0.09821436398797026 0.0 0.9155995974726009 -0.08601689859508409 0.0 0.3558081386697247 -0.06940501907634741 0.0 1.246844949528625 -0.10491797614173494 0.0 1.1495254189332438 -0.09654695722418738 0.0 1.2737320891253514 -0.067749916242213 0.0 1.146068804828786 -0.08177202489508899 0.0 -0.06921282415957959 -0.026092355260054087 0.0 1.1236303759772173 -0.11558608068893114 0.0 1.1547008632368667 -0.06893067446405808 0.0 1.1063654337746391 -0.09988661142088988 0.0 -0.1708429771844385 -0.005045766291766601 0.0 0.6061471951746051 -0.09706035539122969 0.0 1.1669952943250077 -0.13126840677929466 0.0 0.19083828435361974 -0.05638105165919858 0.0 -0.21216607692610207 -0.0002035985937582059 0.0 1.2158896314153051 -0.12679795476197467 0.0 0.11203130910818385 -0.0516928633355744 0.0 -0.18625098391034453 -0.006696026900909033 0.0 -0.04403940158097605 0.03296007058148982 0.0 0.07540818561232358 -0.046109763205072866 0.0 -0.09367436895083092 -0.021412915270390367 0.0 0.5681392941157049 -0.10074913106939068 0.0 -0.05103174342232857 -0.02691423914558467 0.0 0.21091042333317891 0.064560367848304 0.0 -0.12538500614033762 0.01980688763576625 0.0 -0.0809597622450441 -0.014408569649560945 0.0 -0.13805634989910473 0.003976538239713046 0.0 0.0655523910289602 0.0485089902225307 0.0 1.0713973280824922 0.10073246652973053 0.0 0.44466105674663275 0.08673810210583184 0.0 0.44407029809024073 -0.09078768584411782 0.0 0.3137966141295611 -0.036313528847703024 0.0 0.8468829569364104 -0.059037810464102426 0.0 0.3590004668776988 0.029217338584421337 0.0 1.2123473480713585 0.09525162433336647 0.0 1.0136532373456186 0.1108489449131384 0.0 1.0453365050527217 -0.13538365681307782 0.0 -0.12098208468127426 0.0003800218464351294 0.0 -0.11852265400405132 -0.015035180635122181 0.0 -0.21537272974013202 -0.004219512845681036 0.0 -0.09425472023658776 0.020236015505573433 0.0 -0.14328444002058685 -0.014793978978583954 0.0 0.4513205035984312 -0.08596889495636685 0.0 1.1999481202735427 -0.13004567154297858 0.0 0.7873123398174914 -0.11717916282458576 0.0 1.0177942172405594 -0.1377261796309044 0.0 -0.020612792594071973 0.035603923413769466 0.0 0.12188378214362194 -0.052128528948854384 0.0 0.04222746564541393 -0.030866337922886698 0.0 0.3337572337944746 -0.07703885359673429 0.0 0.017203582558835626 -0.03233609976595158 0.0 1.1438420662000637 0.13390192975274134 0.0 -0.05454965670988523 -0.00044083461063269326 0.0 0.04500079108432419 0.024076484426460786 0.0 -0.01899495964837078 0.002209008690657968 0.0 0.14859411314298027 -0.03993509057826337 0.0 0.4306185441656676 0.06327041965444491 0.0 0.8479222974825935 -0.12570232403300396 0.0 0.6708269529061776 -0.11319298129986063 0.0 0.9357115779618943 -0.12311191342041672 0.0 0.386266852784319 -0.0834536502446702 0.0 0.9573003577532229 -0.13570498210126028 0.0 1.1811377376552554 -0.13518213213097582 0.0 1.1386533310478892 -0.13293981824252055 0.0 1.1271460882305298 -0.12497246345155479 0.0 0.7599909012039607 -0.12187831538308205 0.0 0.6739476923000368 -0.11305706789539663 0.0 0.5597159181731858 -0.09709204186071729 0.0 0.5282675540657812 -0.09694059317057424 0.0 0.257291756545241 -0.06473860583307672 0.0 0.9296291334670188 -0.13041549974202185 0.0 0.3220089037183756 0.04474471693925814 0.0 0.7409257455481187 0.08238644820134751 0.0 0.06401401762195529 0.026220661598208 0.0 0.223092084614122 0.05124889228322223 0.0 -0.1429608050582996 0.010479599781775217 0.0 1.2298218395104443 0.014815709385388766 0.0 1.081582321327164 0.06689643233874855 0.0 1.249660653490504 -0.048782895706877175 0.0 1.1865556535882964 -0.09571912151720387 0.0 0.29683690582102396 -0.06614531796713789 0.0 0.5285680262632042 -0.0864581318431044 0.0 0.699710553959507 0.09823842642988119 0.0 0.11578698114952762 0.04663622177508925 0.0 1.1968932539676256 0.037949295222546836 0.0 1.2374414449234208 -0.06842972928416942 0.0 0.6857163787450121 0.11900822954212095 0.0 1.1897772862095681 -0.10854559630983232 0.0 0.7268879629178604 0.09222393662694389 0.0 1.2342722482474502 0.11319304254243867 0.0 0.4416813381534707 0.07994300045732647 0.0 0.851926693128682 0.12088965090811513 0.0 1.2190262383286452 0.058990246742079526 0.0 1.1010832235024435 -0.051463051869532685 0.0 1.1732007620891232 -0.11567259983365578 0.0 0.9591723389310991 0.11448175299129122 0.0 1.1230057240806852 0.13040217938036835 0.0 1.1650789050930204 0.12039246287029681 0.0 1.1817267802351386 0.1365191019533224 0.0 1.1496565393518834 0.14543086443091427 0.0 1.0726936027651903 0.13574101680753056 0.0 0.8215148814909485 0.12647845200942193 0.0 1.102784578133767 -0.11108021213796022 0.0 0.0 0.0 0.0 1.1681098416614666 0.08988562806423146 0.0 1.0242748690644181 0.1446091949125699 0.0 0.45085294136294374 0.09320569193292719 0.0 1.1766014912619482 0.10604090306578656 0.0 1.0145473576307942 0.14208666719635762 0.0 1.1999084884879987 0.13129753805076239 0.0 0.755512780337518 0.1252948253673988 0.0 1.1620485736473516 0.13631753501368096 0.0 0.7128492353611157 0.12389031233733232 0.0 0.3763715494577708 0.08867094733381627 0.0 1.1473639952051606 0.1462669907355909 0.0 0.8180196588119806 0.1330968570489756 0.0 1.106269517895474 0.14670223619959596 0.0 0.9691510973828242 0.14438420823762457 0.0 0.9145815888743964 0.13908696100939694 0.0 1.191580534399905 0.13547932166315715 0.0 1.1496205463073386 0.14157751437147023 0.0 1.1568160314503442 0.11585563009091572 0.0 0.2378666769214811 0.07055105012060031 0.0 0.9333680564253289 0.09180758329848726 0.0 1.1540974152494572 0.1412632378781103 0.0 1.1335552042015593 0.1429349756980157 0.0 1.1053049237013164 0.12062763895142686 0.0 1.1233168073300042 0.1290509903496773 0.0 1.130740619664841 0.11835582266623339 0.0 0.9956967966676077 0.08657403292445173 0.0 1.0238901695160072 0.13621842224096142 0.0 1.026043525979598 0.10610334320530489 0.0 1.1116799869303686 0.11804776581731742 0.0 0.8199801709373319 0.07370067664199217 0.0 1.1166660739076246 0.1333128079579475 0.0 1.08153985132897 0.1276542656366486 0.0 1.0895508326899626 0.14164292405562168 0.0 1.0315573450830435 0.10520887061386734 0.0 0.0 0.0 0.0 0.6499060170575303 -0.005676906212406147 0.0 1.0931254085126993 0.41068090422236336 0.0 1.1854384993427907 0.38752560431014316 0.0 1.099818525122058 -0.4016856542985203 0.0 0.8614200208915561 -0.20592039051860608 0.0 0.9731259973120288 -0.2237528328636597 0.0 0.8949088640791306 -0.08241128198892385 0.0 1.2595697024596335 -0.012052224769745837 0.0 1.1657164473255883 -0.025086205353644288 0.0 1.250293539872589 -0.0549477342347182 0.0 1.1795440955102856 -0.03670310457433846 0.0 1.2210337505346973 -0.01042366633301145 0.0 -0.14104730169830226 -0.007280004967721203 0.0 -0.13221703481364264 0.024833789286810157 0.0 -0.07206573298689267 0.022632568856881197 0.0 -0.0761982749434291 0.04008183389582031 0.0 0.06757519134133208 0.0374181214206573 0.0 -0.11433103817700606 0.03139617510516096 0.0 -0.03742536749957489 0.05870143771132392 0.0 0.09052495596820538 0.04585125285862245 0.0 -0.03186715269650371 0.07086103823966436 0.0 -0.08033390687967801 0.04789830183138873 0.0 0.989971271448249 0.12027410391407611 0.0 -0.12453709382761376 0.019743697470207995 0.0 1.183619969731648 -0.13187522076816446 0.0 1.160175523576854 -0.14018770182456952 0.0 1.0535969730205237 -0.13986922424486056 0.0 1.1322023158849295 -0.1399795448634456 0.0 1.1354806280164798 -0.11849622434704483 0.0 1.0220020804974161 -0.13711345605917838 0.0 1.1507958059410608 -0.12494112445151012 0.0 1.1092577273224298 -0.13494577721565776 0.0 1.1374239292139134 -0.13652333357477142 0.0 0.9811839042382611 -0.12452103811875952 0.0 1.0128511777282294 -0.13091993168142116 0.0 0.7967845558067691 -0.11611050621041918 0.0 1.1122946574681363 -0.12896185261354728 0.0 1.119918997560003 -0.11011219570674063 0.0 1.0905856282703805 -0.12092737404867303 0.0 0.9524273224579661 -0.08709810448471371 0.0 1.1299102690859564 -0.11883117108298799 0.0 0.8435605186025753 -0.10761980508828628 0.0 1.109846727721256 -0.11169679174766245 0.0 1.0223693288223543 -0.11461436336733624 0.0 0.8047383116037653 -0.09236489353717223 0.0 0.9521975358886893 -0.0899128701446892 0.0 0.8823071331420477 -0.1037412293801361 0.0 0.41991630837525334 -0.06308339214867004 0.0 0.9815437797329106 -0.1035286883715567 0.0 0.6593844050372498 -0.08574922846209347 0.0 