<?xml version="1.0"?>
<VTKFile type="UnstructuredGrid"  version="0.1"  >
<UnstructuredGrid>
<Piece  NumberOfPoints="1289" NumberOfCells="2413">
<Points>
<DataArray  type="Float64"  NumberOfComponents="3"  format="ascii">0 0 0  0 0.41 0  2.2 0.41 0  2.2 0 0  0.1 0.1 0  0.1 0.3 0  0.8 0.3 0  0.8 0.1 0  0.25 0.2 0  0.248976 0.210065 0  0.245948 0.219718 0  0.241038 0.228563 0  0.234448 0.23624 0  0.226448 0.242432 0  0.217365 0.246888 0  0.207571 0.249423 0  0.197468 0.249936 0  0.187467 0.248404 0  0.17798 0.24489 0  0.169395 0.239539 0  0.162062 0.232569 0  0.156283 0.224265 0  0.152293 0.214968 0  0.150257 0.205058 0  0.150257 0.194942 0  0.152293 0.185032 0  0.156283 0.175735 0  0.162062 0.167431 0  0.169395 0.160461 0  0.17798 0.15511 0  0.187467 0.151596 0  0.197468 0.150064 0  0.207571 0.150577 0  0.217365 0.153112 0  0.226448 0.157568 0  0.234448 0.16376 0  0.241038 0.171437 0  0.245948 0.180282 0  0.248976 0.189935 0  1.1 0 0  1.1 0.41 0  0.1 0.2 0  0.45 0.1 0  0.45 0.3 0  0.55 0 0  0.275 0.1 0  0.275 0.3 0  0.275 0 0  0.55 0.41 0  0 0.205 0  0.825 0 0  0.825 0.41 0  0.275 0.41 0  0.1 0.15 0  0.1875 0.1 0  0.1 0.25 0  0.1875 0.3 0  0.132322 0.2 0  0.241426 0.253518 0  0.241426 0.146482 0  0.264574 0.17974 0  0.264574 0.22026 0  0.138434 0.187348 0  0.153372 0.150948 0  0.148413 0.164094 0  0.176495 0.136535 0  0.22768 0.143571 0  0.138434 0.212652 0  0.148413 0.235906 0  0.176495 0.263465 0  0.22768 0.256429 0  0.23125 0.3 0  0.24769 0.24094 0  0.23125 0.1 0  0.24769 0.15906 0  0.26253 0.193641 0  0.190482 0.137872 0  0.166753 0.146661 0  0.157737 0.244461 0  0.190482 0.262128 0  0.203107 0.261264 0  0.253635 0.22977 0  0.203107 0.138736 0  0.253635 0.17023 0  0.261028 0.206206 0  0.167707 0.251809 0  0.143629 0.224191 0  0.215302 0.2591 0  0.270465 0.245894 0  0.215302 0.1409 0  0.270465 0.154106 0  0.284052 0.202587 0  0.14375 0.3 0  0.209375 0.3 0  0.225966 0.278501 0  0.209375 0.1 0  0.225966 0.121499 0  0.211613 0.273759 0  0.211613 0.126241 0  0.143629 0.175809 0  0.1 0.175 0  0.133484 0.164832 0  0.144491 0.249539 0  0.1 0.225 0  0.133484 0.235168 0  0.3625 0.3 0  0.25691 0.253381 0  0.25691 0.146619 0  0.277205 0.188698 0  0.184724 0.275712 0  0.237372 0.268285 0  0.184724 0.124288 0  0.237372 0.131715 0  0.197578 0.273149 0  0.193656 0.286994 0  0.197578 0.126851 0  0.193656 0.113006 0  0.122953 0.187671 0  0.118362 0.153758 0  0.155372 0.258107 0  0.122953 0.212329 0  0.118362 0.246242 0  0.276394 0.27264 0  0.276394 0.12736 0  0.280965 0.170013 0  0.253125 0.3 0  0.14375 0.1 0  0.253125 0.1 0  0.269489 0.26014 0  0.269489 0.13986 0  0.303639 0.184297 0  0.165625 0.3 0  0.134742 0.273113 0  0.257831 0.274737 0  0.255279 0.128499 0  0.3625 0.1 0  0.165625 0.1 0  0.162031 0.132368 0  0.134955 0.126405 0  0.149334 0.125568 0  0.142936 0.139597 0  0.12695 0.140259 0  0.242514 0.285501 0  0.242514 0.114499 0  0.1 0.125 0  0.117483 0.12555 0  0.11154 0.139776 0  0.121875 0.1 0  0.109143 0.1125 0  0.126805 0.114 0  0.220313 0.29129 0  0.351562 0.287369 0  0.207222 0.2866 0  0.220312 0.10871 0  0.1375 0 0  0.20625 0 0  0.207222 0.1134 0  0.11722 0.17118 0  0.1 0.1625 0  0.0778409 0.16875 0  0.0862762 0.15625 0  0 0.15375 0  0 0.1025 0  0.11722 0.22882 0  0.1 0.2375 0  0 0.3075 0  0.0862762 0.23125 0  0.0598995 0.222547 0  0.0860223 0.2125 0  0.289584 0.181469 0  0.300267 0.16446 0  0.163832 0.269071 0  0.149597 0.273325 0  0.1 0.275 0  0.268498 0.285953 0  0.31875 0.3 0  0.294154 0.254672 0  0.296875 0.3 0  0.293558 0.271845 0  0.285095 0.286799 0  0.324298 0.264316 0  0.307866 0.263745 0  0.317093 0.234901 0  0.315485 0.281219 0  0.316547 0.250625 0  0.344693 0.243731 0  0.331592 0.251147 0  0.35129 0.270663 0  0.338689 0.263683 0  0.340625 0.3 0  0.249849 0.264383 0  0.265097 0.11422 0  0.284688 0.156136 0  0.242188 0.324017 0  0.0856613 0.2625 0  0.132812 0.0612217 0  0.264062 0.0612217 0  0.198437 0.07598340000000001 0  0.0860223 0.1375 0  0.0794526 0.191089 0  0.285228 0.140397 0  0.298655 0.148737 0  0.31875 0.1 0  0.327335 0.15374 0  0.296875 0.1 0  0.312289 0.155283 0  0.313348 0.135607 0  0.321802 0.173916 0  0.298433 0.134116 0  0.112124 0.2625 0  0.127526 0.259083 0  0.121875 0.3 0  0.0682687 0.241503 0  0.1 0.2875 0  0.117762 0.28125 0  0.107813 0.3 0  0.103906 0.313849 0  0.0778409 0.28125 0  0.1375 0.41 0  0.0862762 0.29375 0  0.08886860000000001 0.24375 0  0.307812 0.338778 0  0.307812 0.292227 0  0.33216 0.279164 0  0.387888 0.266414 0  0.264063 0.31948 0  0.110937 0.07598340000000001 0  0.242188 0.07598340000000001 0  0.319914 0.11839 0  0.340625 0.1 0  0.334448 0.133793 0  0.329687 0.108539 0  0.346259 0.118491 0  0.360334 0.173636 0  0.327539 0.205033 0  0.132812 0.288712 0  0.362436 0.278836 0  0.368105 0.259418 0  0.4125 0.41 0  0.329687 0.324017 0  0.329687 0.292306 0  0.285938 0.318952 0  0.417187 0.338778 0  0.324481 0.14148 0  0.351562 0.106771 0  0.40625 0.1 0  0.341028 0.168342 0  0.319221 0.190479 0  0.335292 0.184501 0  0.305563 0.20794 0  0.220313 0.31948 0  0.132812 0.332772 0  0.0865876 0.311259 0  0.0598995 0.302453 0  0.0906541 0.343255 0  0.353543 0.255837 0  0.36574 0.237633 0  0.405007 0.254279 0  0.275795 0.352123 0  0.4125 0 0  0.35493 0.137394 0  0.366563 0.120618 0  0.35917 0.205246 0  0.198438 0.318952 0  0.0626109 0.263892 0  0.40625 0.3 0  0.354809 0.155936 0  0.386512 0.146872 0  0.373101 0.159939 0  0.384375 0.1 0  0.343394 0.19929 0  0.350682 0.185683 0  0.368101 0.189748 0  0.344016 0.221511 0  0.391108 0.213329 0  0.376279 0.204783 0  0.398843 0.182768 0  0.375804 0.222746 0  0.390665 0.196958 0  0.394004 0.23518 0  0.359883 0.222828 0  0.419908 0.204359 0  0.404243 0.204783 0  0.412615 0.224526 0  0.20625 0.41 0  0.165625 0.325257 0  0.0347982 0.244954 0  0.379558 0.247154 0  0.34165 0.147603 0  0.372264 0.136992 0  0.388988 0.121989 0  0.373437 0.108554 0  0.351562 0.31948 0  0.391367 0.16527 0  0.399572 0.223324 0  0.452011 0.227371 0  0.40877 0.239392 0  0.431491 0.237337 0  0.421224 0.250459 0  0.449619 0.262098 0  0.418865 0.276779 0  0.437063 0.252274 0  0.415673 0.263227 0  0.430988 0.266772 0  0.402767 0.273419 0  0.452967 0.244883 0  0.428125 0.3 0  0.408502 0.286186 0  0.384375 0.3 0  0.392267 0.285807 0  0.465927 0.219339 0  0.43489 0.283846 0  0.376424 0.286289 0  0.625 0.3 0  0.473533 0.205186 0  0.461713 0.255517 0  0.5375 0.3 0  0.465725 0.235405 0  0.44631 0.201425 0  0.471875 0.3 0  0.494307 0.227729 0  0.459448 0.206736 0  0.462294 0.180792 0  0.478933 0.227536 0  0.486793 0.21381 0  0.486322 0.251373 0  0.50065 0.215318 0  0.54005 0.175389 0  0.474633 0.189893 0  0.512916 0.208697 0  0.49531 0.199967 0  0.475889 0.175275 0  0.625 0.1 0  0.459311 0.153933 0  0.513645 0.242704 0  0.392892 0.248539 0  0.374815 0.271913 0  0.365974 0.14871 0  0.395312 0.109184 0  0.417061 0.123981 0  0.483196 0.277003 0  0.381967 0.179632 0  0.429898 0.219374 0  0.433473 0.206165 0  0.43149 0.181038 0  0.444208 0.215487 0  0.472985 0.247309 0  0.49375 0.3 0  0.475579 0.262714 0  0.49916 0.274293 0  0.501175 0.184809 0  0.514164 0.225681 0  0.543648 0.214977 0  0.5341630000000001 0.23481 0  0.527396 0.216171 0  0.5375 0.1 0  0.534548 0.202315 0  0.561545 0.192513 0  0.5494289999999999 0.201221 0  0.570923 0.218346 0  0.412582 0.149833 0  0.489327 0.264745 0  0.502439 0.254775 0  0.462391 0.271166 0  0.496775 0.241732 0  0.5294410000000001 0.268606 0  0.482812 0.291099 0  0.46879 0.285038 0  0.452663 0.284065 0  0.51789 0.257882 0  0.53408 0.252026 0  0.560142 0.243543 0  0.545708 0.243474 0  0.547532 0.229019 0  0.55282 0.265323 0  0.398971 0.153424 0  0.400349 0.135684 0  0.410135 0.168145 0  0.428823 0.161323 0  0.415266 0.183779 0  0.329687 0.0810483 0  0.395312 0.0612217 0  0.373437 0.318952 0  0.439062 0.324017 0  0.561816 0.229354 0  0.585029 0.239287 0  0.431827 0.139854 0  0.446796 0.168929 0  0.351562 0.07598340000000001 0  0.395313 0.318944 0  0.54337 0.150762 0  0.460937 0.31948 0  0.418412 0.137529 0  0.428125 0.1 0  0.442783 0.152332 0  0.450742 0.134294 0  0.373437 0.0805201 0  0.384383 0.342558 0  0.482812 0.318952 0  0.429239 0.127457 0  0.444274 0.117405 0  0.426548 0.113815 0  0.49375 0.1 0  0.488954 0.113984 0  0.457973 0.121842 0  0.471621 0.137346 0  0.515625 0.325257 0  0.48125 0.41 0  0.417187 0.07598340000000001 0  0.496363 0.126778 0  0.479043 0.155715 0  0.439062 0.0805201 0  0.481795 0.126919 0  0.471875 0.1 0  0.489227 0.142159 0  0.515625 0.1 0  0.520062 0.147117 0  0.501244 0.161791 0  0.505431 0.112984 0  0.505344 0.14029 0  0.526563 0.119081 0  0.5181750000000001 0.131908 0  0.539868 0.136937 0  0.460937 0.108383 0  0.474242 0.114415 0  0.460937 0.0810483 0  0.487841 0.167168 0  0.526563 0.0612217 0  0.526563 0.106406 0  0.537619 0.112743 0  0.58125 0.1 0  0.559375 0.1 0  0.482812 0.08105569999999999 0  0.471883 0.0587655 0  0.570312 0.129396 0  0.548437 0.07598340000000001 0  0.504687 0.08105569999999999 0  0.49375 0.0470127 0  0.570312 0.112663 0  0.592798 0.12103 0  0.553986 0.12103 0  0.570312 0.0805201 0  0.48125 0 0  0.114787 0.2 0  0.160769 0.284765 0  0.175816 0.288361 0  0.162602 0.116048 0  0.154687 0.07598340000000001 0  0.176562 0.0805201 0  0.0598995 0.147547 0  0.307812 0.109924 0  0.291279 0.117157 0  0.278491 0.112989 0  0.285937 0.07598340000000001 0  0.307812 0.0805201 0  0.296928 0.196743 0  0.318141 0.218507 0  0.330208 0.227509 0  0.301397 0.225668 0  0.302706 0.241401 0  0.292574 0.21424 0  0.282762 0.230935 0  0.284351 0.244775 0  0.269553 0.23261 0  0.278572 0.217242 0  0.226924 0.342606 0  0.446928 0.185396 0  0.515625 0.3 0  0.504687 0.288879 0  0.515256 0.276534 0  0.529479 0.285328 0  0.58125 0.3 0  0.541969 0.272936 0  0.559375 0.3 0  0.556796 0.282529 0  0.543473 0.287206 0  0.581429 0.267774 0  0.566728 0.271171 0  0.570869 0.255585 0  0.577404 0.283865 0  0.603125 0.3 0  0.597531 0.28035 0  0.570312 0.338778 0  0.592188 0.292492 0  0.603513 0.256094 0  0.614063 0.286265 0  0.610329 0.27064 0  0.632708 0.251285 0  0.657223 0.261594 0  0.618789 0.257807 0  0.614188 0.22987 0  0.630935 0.265614 
[...]
<PointData  Vectors="v"> 
	<DataArray  type="Float64"  Name="v"  NumberOfComponents="3" format="ascii">
0.0 0.0 0.0 0.0 0.0 0.0 0.0 0.0 0.0 0.0 0.0 0.0 0.7974364464965812 -0.18893463512865977 0.0 0.8412798488020757 0.19852971318526572 0.0 1.0250078666403954 -0.03373418764653476 0.0 0.9687834682789885 0.026900040608865125 0.0 0.0 0.0 0.0 0.0 0.0 0.0 0.0 0.0 0.0 0.0 0.0 0.0 0.0 0.0 0.0 0.0 0.0 0.0 0.0 0.0 0.0 0.0 0.0 0.0 0.0 0.0 0.0 0.0 0.0 0.0 0.0 0.0 0.0 0.0 0.0 0.0 0.0 0.0 0.0 0.0 0.0 0.0 0.0 0.0 0.0 0.0 0.0 0.0 0.0 0.0 0.0 0.0 0.0 0.0 0.0 0.0 0.0 0.0 0.0 0.0 0.0 0.0 0.0 0.0 0.0 0.0 0.0 0.0 0.0 0.0 0.0 0.0 0.0 0.0 0.0 0.0 0.0 0.0 0.0 0.0 0.0 0.0 0.0 0.0 0.0 0.0 0.0 0.0 0.0 0.0 0.0 0.0 0.0 0.0 0.0 0.0 0.0 0.0 0.0 0.7648509383545995 -0.002563103171469855 0.0 1.2144305681254843 0.12221077499678593 0.0 1.2296842020893788 -0.12150056249167596 0.0 0.0 0.0 0.0 1.3014823408353842 -0.07541083059848544 0.0 1.315679518261859 0.09167572172910349 0.0 0.0 0.0 0.0 0.0 0.0 0.0 1.0 0.0 0.0 0.0 0.0 0.0 0.0 0.0 0.0 0.0 0.0 0.0 0.847047862079436 -0.22924344801787613 0.0 1.1544661749198166 -0.30170996679717776 0.0 0.8680889450035539 0.22438526310618914 0.0 1.1690811262406688 0.3089263260161717 0.0 0.43210975739994784 -0.005589804761928869 0.0 0.1653455926098673 0.02739654203675569 0.0 0.17183337992204478 -0.02319390947149759 0.0 -0.046986234042621186 -0.06344696889493334 0.0 -0.04927272654952729 0.06466963190516758 0.0 0.33818110812347313 -0.28327433395686624 0.0 0.8736045045163264 -0.6728079386077092 0.0 0.6512126156154323 -0.6946610496391294 0.0 1.2435624462415829 -0.6028097727433622 0.0 0.30359895412985816 0.0030726513434549013 0.0 0.3339056064738859 0.26869942178656153 0.0 0.6526412081339283 0.6721480173859463 0.0 1.221017332464387 0.6033237456345327 0.0 0.2903964327666867 0.0009336559275560165 0.0 1.283301833727775 0.19355815970032228 0.0 -0.020374072335935075 0.054293436399936085 0.0 1.2725493989512977 -0.17533471276967702 0.0 -0.017111707251404963 -0.05334573915262987 0.0 -0.03606938197745959 -0.025457944284983713 0.0 1.2248123972814817 -0.3985918325903322 0.0 1.1286786242699207 -0.7307857567588707 0.0 0.8710658484687646 0.777511212849234 0.0 1.2313138873701628 0.39889288963397407 0.0 0.9094692768589095 0.1647050791123594 0.0 -0.03764030594008457 0.06906920268032253 0.0 0.9178856008356617 -0.16050037035235173 0.0 -0.03841439949101751 -0.06862521941957704 0.0 -0.03063907377486116 0.022689799536641908 0.0 1.0607449344222066 0.7280514530770694 0.0 0.4479520533919776 0.5316413810304459 0.0 0.5368448417450882 0.03204278700970359 0.0 0.0751823088785506 0.04966877723521951 0.0 0.5457764887145556 -0.030694116475064304 0.0 0.08203360372795444 -0.049928984292124876 0.0 -0.11084664013781681 0.007149769096846029 0.0 0.9692282901887805 0.29796089086296756 0.0 1.2528981042702496 0.2459878503674873 0.0 1.2959112753618747 0.20392837198857192 0.0 1.225643091833136 -0.24370751837977506 0.0 1.2925738854169257 -0.1966255421900735 0.0 1.3046605891980037 0.2542739200636777 0.0 1.3075166617440348 -0.2462869344340824 0.0 0.44984453730256174 -0.550792711165475 0.0 0.8058921932239002 -0.1393746833952059 0.0 0.6792380629230451 -0.4197345075246332 0.0 0.8913596163442608 0.5913994203137592 0.0 0.8032156120397396 0.140106365517344 0.0 0.6844288133453607 0.4179074631963193 0.0 1.2806909432820133 -0.04688064235826023 0.0 0.19162517506252771 0.03363533042803604 0.0 0.2084553706258072 -0.027369513468074425 0.0 -0.08474585674197342 -0.035245221435684634 0.0 1.3024934358749312 0.42809155479260275 0.0 0.8769269141252162 0.06772505176030526 0.0 1.297392334212818 -0.4334390726423693 0.0 0.8951077344491711 -0.06034930302459515 0.0 1.3329108172797184 0.3599583996363464 0.0 1.2706903102571516 0.3457750622799843 0.0 1.3281669418200353 -0.3574335549330979 0.0 1.2611203912492182 -0.32666749836706016 0.0 0.5884193474266926 -0.16192256430173102 0.0 0.8032512522369862 -0.3298130656758458 0.0 1.0315436096914439 0.5962116396200681 0.0 0.5963696041865457 0.14893324422418414 0.0 0.8190845065515392 0.32724859931184525 0.0 0.8742060113171177 0.03640444289546118 0.0 0.9027568261637839 -0.026159711102980977 0.0 -0.038586930032230314 -0.05852954751339574 0.0 1.3100219697268227 0.1349450112232814 0.0 0.9340522507505686 -0.3052089195516193 0.0 1.2915898312890197 -0.11910594671004601 0.0 0.4091585641180664 0.027770395773764545 0.0 0.43841702881790884 -0.018071928810828145 0.0 -0.1255704768979326 -0.027612397895493253 0.0 1.0625908910870954 0.3229962616365663 0.0 0.9526662104218699 0.3796641109884657 0.0 1.0290071261970333 0.07095133052479559 0.0 0.9230937443154248 -0.04820158977955857 0.0 1.2728803462854519 0.05339621572292074 0.0 1.0332405116786199 -0.3178087114531083 0.0 1.0981653661818709 -0.5579296946803081 0.0 0.9401948038777914 -0.379620544715911 0.0 1.0120512376902224 -0.424637132704481 0.0 0.9473217471192983 -0.5378700773823947 0.0 0.8744392185735177 -0.40152206204192825 0.0 1.3104094743849455 0.15712625349499665 0.0 1.3015066915413531 -0.14669863782494164 0.0 0.8561836318781025 -0.23029659376031178 0.0 0.885054983797731 -0.30270422740093655 0.0 0.8587460083879137 -0.2945599006508627 0.0 0.8535193785853953 -0.24546668152048656 0.0 0.8575004827252918 -0.24474328597848258 0.0 0.902088234932776 -0.3087600016509998 0.0 1.3162746136205359 0.2280022554226209 0.0 1.1753323105805193 -0.04016445534055371 0.0 1.327543622150994 0.2885803702527169 0.0 1.3067135742244143 -0.2097321377864022 0.0 0.0 0.0 0.0 0.0 0.0 0.0 1.3101406000741485 -0.2766722274859315 0.0 0.719786249166892 -0.26762580196336533 0.0 0.8245286241786175 -0.20940937578012128 0.0 0.8737027639340705 -0.10983066613846529 0.0 0.8655466521491876 -0.16191476516981024 0.0 0.9375 0.0 0.0 0.7500000000000001 0.0 0.0 0.7276505091794797 0.2629118147627883 0.0 0.8282385647632227 0.19656081808728762 0.0 0.7499999999999999 0.0 0.0 0.8726179734077936 0.1247869309907772 0.0 0.9301694222254054 0.041024192697431565 0.0 0.8509458305601629 0.043285743916247794 0.0 -0.09460070795869663 -0.040577951141266805 0.0 0.009467260335003256 -0.03946006514342351 0.0 1.138441154856656 0.5375196996335414 0.0 1.033162134389568 0.4587639558522685 0.0 0.8839707355780846 0.23800256071600384 0.0 1.2511117422083984 0.08604304641642092 0.0 1.303357994622883 0.0152846430638086 0.0 0.2891303553508961 0.020984441167596197 0.0 1.3167317444074118 0.05059240066796026 0.0 0.8210100268443298 0.015582431082112918 0.0 1.2314863454093645 0.05525632538378408 0.0 0.5879080651132124 -0.010857668593640724 0.0 0.5518450544698527 0.004047524973842126 0.0 -3.316525277651761e-05 0.030407182092673773 0.0 1.076346283683331 0.000997068683422762 0.0 0.23489153638113827 0.015194094076240842 0.0 0.14737007942611313 0.006000290022308766 0.0 0.26725312643403176 0.005704971258168406 0.0 0.7937453642070791 -0.03858168184620614 0.0 0.5848739714065266 -0.02029365148266248 0.0 1.298140068826388 -0.01972190908114788 0.0 0.6056696467735165 0.029565883771644045 0.0 1.2616243777470901 -0.08481803239031308 0.0 0.08803968395190097 -0.04248915933621859 0.0 1.1520702092985027 0.11556560667353803 0.0 0.8853837414340789 0.17445856191760653 0.0 0.6960124969821038 -0.15605743697306804 0.0 1.0454667178687391 -0.05741797119322168 0.0 1.0177467332951777 -0.1839940753750892 0.0 0.8664709133643919 -0.1791353969506966 0.0 0.8778853767410083 -0.026212772895285674 0.0 0.4325191808717211 -0.01477523865925518 0.0 0.239638676392267 -0.019843837288347956 0.0 1.291570246452198 0.0016292411504102403 0.0 0.1882460344668261 -0.008369666506477105 0.0 1.3027962586164794 -0.0354328642690469 0.0 0.14059098790424743 -0.021169727085138982 0.0 0.608744992654169 0.013744840465681616 0.0 -0.07435186819408794 -0.025156256938148835 0.0 0.641755181782257 0.0016596694770247865 0.0 0.8844873195475416 0.290067234005042 0.0 0.8880301671062929 0.4039518791431335 0.0 0.8866232758651135 0.25683815805070276 0.0 0.9141045454694928 0.10676217128270839 0.0 0.8672407671920548 0.21454629124936755 0.0 0.9093211043001804 0.2932565102514996 0.0 0.8584345134433492 0.22291946062941492 0.0 0.8016250835518507 0.17333988628078323 0.0 0.8683139559039659 0.15574082658399963 0.0 0.0 0.0 0.0 0.8423217911847822 0.16946939744609896 0.0 0.8738325884235861 0.16708607384325896 0.0 1.120513021718996 0.013496104885225133 0.0 1.2698752009302963 0.02338610636831915 0.0 1.014931754325995 -0.01994606221668548 0.0 0.7296167851440558 -0.06620671323517523 0.0 1.2149951034769801 0.0897120607715606 0.0 0.7161335269296617 -0.16459813410826962 0.0 1.1239762437190406 -0.11061830275278976 0.0 1.1002338987529403 0.013403535826059194 0.0 1.2858235414358985 0.030431480207558356 0.0 0.6867994686542495 0.032052540145678765 0.0 1.2493479307413198 0.0212882935161036 0.0 1.0901335585002767 0.045025892635188504 0.0 -0.06739308867708688 -0.006125776395439582 0.0 -0.1937238773681108 0.007098274710032587 0.0 0.9504799568570129 0.32639688113666665 0.0 1.0112471189611087 -0.055665335154328324 0.0 0.5182476203771343 -0.0371334423551761 0.0 0.0 0.0 0.0 1.2236913270026295 -0.003802793522246495 0.0 1.255357194854595 -0.012801504660725027 0.0 1.235252786148021 0.06038671020227966 0.0 1.1059994295853643 -0.07408682847761515 0.0 0.4551876229611761 0.008499425271534841 0.0 1.2477589899399353 0.047883874254656 0.0 1.2473773390348262 0.09415781444891448 0.0 -0.013407442484902317 -0.013451386246227881 0.0 -0.16918752280745322 -0.013241566294791923 0.0 -0.1584637180225194 -0.014651143316888902 0.0 -0.1552940420397645 0.014990098222641138 0.0 1.1527449819962163 0.1654712911131225 0.0 0.7732321496363977 0.18321389718489 0.0 0.7777315824722683 0.14662483733520543 0.0 0.7859282086334621 0.10234891374321158 0.0 0.6179809630426314 0.10404701622910241 0.0 0.4077282506578878 -0.01915444724250868 0.0 0.07229651566314917 -0.0020830011223038447 0.0 0.46601627835820225 -0.058435025317314794 0.0 0.9918927066563736 0.04287588675656472 0.0 0.0 0.0 0.0 0.6156860478128319 0.04225517413668356 0.0 1.0462057878827407 0.06674574759469029 0.0 -0.22426293841953943 0.003741013771659493 0.0 1.0803642661766704 0.22139681160536054 0.0 0.9013723238175506 0.10858077014142635 0.0 1.2607371914067085 -0.09212861825233414 0.0 0.18960599461864458 0.008122932630895783 0.0 0.43688888187962427 0.04868157129406775 0.0 0.14505862557633262 0.014032175850445682 0.0 1.263488116832141 0.07637906801391989 0.0 -0.2153919803645845 -0.00019516523769780384 0.0 -0.17438230523968734 -0.009423598779396386 0.0 -0.2052525709565213 -0.004322631483736277 0.0 -0.12887215803920113 0.01609631924497802 0.0 -0.1971648027065581 -0.0008031565572184177 0.0 -0.23380054560433267 0.0016888369315392613 0.0 -0.14795389348081658 0.0040324405522661165 0.0 -0.11792218699277614 0.0024210320911004376 0.0 -0.23660827686492575 -0.0011445115726117867 0.0 0.06572549596240117 -0.016358852750549855 0.0 -0.11865330305290066 0.009900817193094413 0.0 -0.23128668172298025 -0.004625568975120042 0.0 -0.23619676769567993 -0.0026030542652006505 0.0 -0.07249946661883885 -0.015991196180241227 0.0 0.0 0.0 0.0 0.9377146070203356 0.22887437262190757 0.0 0.9517319176246716 0.038584619857612565 0.0 0.2627379913540081 -0.0244964070866834 0.0 0.33614986228783744 0.012310210486974678 0.0 0.6557983986995262 0.056606837979192345 0.0 1.0307015839899552 0.08542636607887447 0.0 1.2246022628853703 0.07223305748119123 0.0 1.2500993587372906 -0.026365867246831945 0.0 0.08054857076960548 0.017465696326223006 0.0 -0.09848403576922188 -0.008213586393008308 0.0 0.024412383270871325 -0.03958991012069401 0.0 0.1614457600639118 -0.033134468733207446 0.0 0.16285086495876716 -0.04510334966425444 0.0 0.41269655135085076 -0.06350432605665443 0.0 0.7327794730665701 -0.108226641343708 0.0 1.001204807726667 -0.10435588522641352 0.0 0.4872173001348008 -0.07951376613827027 0.0 0.6985689358441614 -0.08429595935423123 0.0 0.8062025216535328 -0.1022114049937436 0.0 0.9179308663136614 -0.08874006664634024 0.0 0.3587651466681031 -0.07409364645656691 0.0 1.2455889103797726 -0.10828336880754032 0.0 1.1504984481035194 -0.09969480445145762 0.0 1.273324066631912 -0.07025507562720479 0.0 1.1469933192122512 -0.0843948343921559 0.0 -0.06884725033898269 -0.031125489231512826 0.0 1.1245086300081095 -0.11960079698133698 0.0 1.1553975190937114 -0.07088659547796708 0.0 1.1035124216267305 -0.09943671911639146 0.0 -0.17204493124884138 -0.010105651514283883 0.0 0.6094740066174833 -0.10181317192293576 0.0 1.1624265334280546 -0.1319254697259913 0.0 0.1930349550896527 -0.061432354340195394 0.0 -0.21420316954466564 -0.0040966480962426515 0.0 1.2131139420955845 -0.1297632835310232 0.0 0.11328349053849911 -0.05682589420744589 0.0 -0.18747680406371312 -0.011480529134348823 0.0 -0.04725355707857068 0.028703564695448706 0.0 0.07665561441635646 -0.05142857242578751 0.0 -0.093846429224095 -0.02670984195638932 0.0 0.5708567828290481 -0.1055005259348223 0.0 -0.051012290962714625 -0.03201681428473159 0.0 0.21156523043310746 0.06235556282100192 0.0 -0.1279068529632955 0.014978423287796592 0.0 -0.08136256675661926 -0.019284866228193854 0.0 -0.13928351739054765 -0.001247425215938354 0.0 0.06268206118323967 0.04415225675858533 0.0 1.0683765770415499 0.10026134608629252 0.0 0.44121476653383745 0.08308749489187807 0.0 0.4455711553009852 -0.09486271783679591 0.0 0.31572270125245755 -0.03766836657922124 0.0 0.8482483688140083 -0.06052476823157114 0.0 0.35616553952450464 0.029014490061512747 0.0 1.2093920073397313 0.09335033475044477 0.0 1.0102480659313138 0.10853899129402822 0.0 1.0455692299232875 -0.13902741903599405 0.0 -0.12410635084018849 4.593666531492277e-05 0.0 -0.11864153443686597 -0.018198409511887784 0.0 -0.21693914352741217 -0.007342417502579156 0.0 -0.09785267269370951 0.017200006922042647 0.0 -0.14364816896397825 -0.018688838708329707 0.0 0.45429238644462916 -0.09102611898007082 0.0 1.1961866257495248 -0.13239506609200777 0.0 0.7899539682536512 -0.12172435932972721 0.0 1.0176719385445716 -0.14100969231087873 0.0 -0.022208460678407642 0.03116415180644698 0.0 0.12238621668257774 -0.056733485736774385 0.0 0.04167149661137339 -0.03412779994934996 0.0 0.3339587906844945 -0.08021430054736611 0.0 0.017011553804734684 -0.036424249209485116 0.0 1.1428677803250153 0.1338145200065776 0.0 -0.05483075854219655 -0.004261473477932397 0.0 0.04614946299933492 0.02221481728060985 0.0 -0.018953126573409376 -0.0007667255149421706 0.0 0.14729632146330962 -0.04138496021706054 0.0 0.42688155486770685 0.06119288453829267 0.0 0.8497084399378456 -0.12978547562409995 0.0 0.6728114336982155 -0.11718573571091345 0.0 0.9378446318122093 -0.12758863287348024 0.0 0.38844387423881566 -0.08825068483933456 0.0 0.9564438604424509 -0.13727802994756907 0.0 1.1788488566138304 -0.13829929678124475 0.0 1.1381797826335256 -0.13663568015529917 0.0 1.1274812588355074 -0.12875529111634332 0.0 0.7608740138275887 -0.12473944328746125 0.0 0.6742867143319312 -0.11537567019302614 0.0 0.5587267618802344 -0.0981522975261376 0.0 0.5281955008898968 -0.09886666384200353 0.0 0.25675986593548644 -0.0673555225316372 0.0 0.92814731268074 -0.13094050467273874 0.0 0.3185297112330596 0.04338554006051116 0.0 0.737344703975271 0.08064684521598212 0.0 0.060384658561703816 0.024281717429436293 0.0 0.21933261334413728 0.04839522494512491 0.0 -0.14630019298411517 0.008593736576412093 0.0 1.2276382950782176 0.013673331784753917 0.0 1.0793000104797967 0.06505526305288334 0.0 1.2484236862037614 -0.05103322321980796 0.0 1.1836037315053103 -0.09848417707929553 0.0 0.295630195680381 -0.0678123442315882 0.0 0.5263346771806922 -0.08650816073756806 0.0 0.6959420852757858 0.09540659990934588 0.0 0.11215125140898369 0.04301135609304234 0.0 1.1945324080040844 0.036496361247164384 0.0 1.235969880216272 -0.07107867549964227 0.0 0.6865010746253423 0.11850156464001303 0.0 1.1864128430209013 -0.11120359789742619 0.0 0.723260744007742 0.09001838752051687 0.0 1.2320296814107794 0.11094341800839441 0.0 0.4379867682688561 0.07666186397716392 0.0 0.8486016554737592 0.11782923372379842 0.0 1.2165863310546097 0.057214773006044745 0.0 1.0993856810973495 -0.05351148257851587 0.0 1.1688046436820947 -0.11804778361337917 0.0 0.9557949726286586 0.11171212948407751 0.0 1.1204771753243044 0.12784882219382496 0.0 1.1623819060115583 0.11800507473988736 0.0 1.1808549790022524 0.13525430374958106 0.0 1.148436092469728 0.14386849764856058 0.0 1.0703200163224016 0.13316789334153067 0.0 0.8188033546872504 0.12357565339337004 0.0 1.0977734122933984 -0.11253250495287956 0.0 0.0 0.0 0.0 1.1660274253532539 0.08797630155645074 0.0 1.0229213112882747 0.14284369160072694 0.0 0.4481478613658996 0.08968881893146824 0.0 1.1748185292499145 0.10416887370551517 0.0 1.012719221622701 0.13989730874821998 0.0 1.1985735811061637 0.1294840915458845 0.0 0.7534929469446635 0.12260705875246684 0.0 1.1610681655691473 0.13572534399610636 0.0 0.7122671868965013 0.12229736538566564 0.0 0.3746596662742793 0.08548006980637864 0.0 1.1464805060447383 0.14523834766963084 0.0 0.8167770269925833 0.13121464884825462 0.0 1.1058432234059676 0.14661081910668175 0.0 0.9685468449388279 0.1434736216725279 0.0 0.9148430608432225 0.1389465071959804 0.0 1.1899333423692093 0.1334528769051439 0.0 1.1480677612541843 0.13964947847831619 0.0 1.1553345208441816 0.1142620050542994 0.0 0.23550914387468927 0.06677270143760142 0.0 0.9312895251435321 0.09112390116105996 0.0 1.1532621412639812 0.14129674096863293 0.0 1.1329065783581718 0.14297020746593955 0.0 1.1035438948441758 0.12099258673434674 0.0 1.1221226912891313 0.12944688773667623 0.0 1.129595521108839 0.11702358202578676 0.0 0.9945917036807244 0.08548851892749973 0.0 1.0242416583099114 0.13694274487802865 0.0 1.0242084431189877 0.10589680760487886 0.0 1.1105566731146834 0.11709442145893978 0.0 0.8179872546021384 0.07256682287912573 0.0 1.1157962685042984 0.13396649432903662 0.0 1.080943422159534 0.12846025338572747 0.0 1.089302146163162 0.14225598432414954 0.0 1.0293465990218418 0.1051339903867346 0.0 0.0 0.0 0.0 0.6487152214729051 -0.006982931727259377 0.0 1.091214370155351 0.40976433402098494 0.0 1.1832874161800848 0.3864162712071295 0.0 1.0979742583984637 -0.4026037609658202 0.0 0.8595001404824933 -0.20698479743866804 0.0 0.9710705672990854 -0.2248122391577511 0.0 0.8937108581566772 -0.08346968249376213 0.0 1.2577076324928156 -0.012660272672039093 0.0 1.164332414360678 -0.025796381872622516 0.0 1.2486242434709733 -0.05571427149001347 0.0 1.1776180265911742 -0.03756336097107184 0.0 1.2189390687676023 -0.011426243801793797 0.0 -0.14282594269356982 -0.007258115867710882 0.0 -0.13340617268965177 0.02552798770372047 0.0 -0.07284940154059832 0.02338328418142765 0.0 -0.07724451461022137 0.040395642444271504 0.0 0.06666484181257328 0.0375808801011313 0.0 -0.1156262471039836 0.03147151966009849 0.0 -0.03848950487217313 0.058604389173463736 0.0 0.08929774595260254 0.045641467974407574 0.0 -0.03300964470471741 0.07047644822601844 0.0 -0.0814535181220629 0.047700504390812075 0.0 0.9885249174551528 0.11902795536819209 0.0 -0.12781782278536527 0.015952662178806636 0.0 1.1792523636418146 -0.13340382568599293 0.0 1.1573926839398643 -0.14227452106290903 0.0 1.0522262694484155 -0.14206080328014753 0.0 1.1290900396849086 -0.14088511922005592 0.0 1.1316328794223833 -0.11783363023750543 0.0 1.0200785969300885 -0.13790993736932294 0.0 1.1463619736854793 -0.12499469962869306 0.0 1.1060076385378985 -0.13484597109721416 0.0 1.1338689989328619 -0.13689828874707075 0.0 0.9787275010624011 -0.12362519919096278 0.0 1.0105190442231364 -0.13036046803609816 0.0 0.7951687644306489 -0.11601645147425797 0.0 1.1088129534477593 -0.1281425293419088 0.0 1.1165134446627885 -0.10950296953825368 0.0 1.0875307040617002 -0.11989842505448488 0.0 0.9481274310068147 -0.08746286763638063 0.0 1.1263556770294434 -0.11782205617769674 0.0 0.8409733422814619 -0.10658212956761519 0.0 1.1069978894321548 -0.11063117516428593 0.0 1.019653233545819 -0.11349918937172397 0.0 0.8017570810910291 -0.09135800789148821 0.0 0.9497545800682241 -0.08942134948288263 0.0 0.8796504265990827 -0.10253192887599229 0.0 0.4170455598072326 -0.0623375956707575 0.0 0.9790138548310428 -0.10250694455314695 0.0 0.656258259239695