<?xml version="1.0"?>
<VTKFile type="UnstructuredGrid"  version="0.1"  >
<UnstructuredGrid>
<Piece  NumberOfPoints="1289" NumberOfCells="2413">
<Points>
<DataArray  type="Float64"  NumberOfComponents="3"  format="ascii">0 0 0  0 0.41 0  2.2 0.41 0  2.2 0 0  0.1 0.1 0  0.1 0.3 0  0.8 0.3 0  0.8 0.1 0  0.25 0.2 0  0.248976 0.210065 0  0.245948 0.219718 0  0.241038 0.228563 0  0.234448 0.23624 0  0.226448 0.242432 0  0.217365 0.246888 0  0.207571 0.249423 0  0.197468 0.249936 0  0.187467 0.248404 0  0.17798 0.24489 0  0.169395 0.239539 0  0.162062 0.232569 0  0.156283 0.224265 0  0.152293 0.214968 0  0.150257 0.205058 0  0.150257 0.194942 0  0.152293 0.185032 0  0.156283 0.175735 0  0.162062 0.167431 0  0.169395 0.160461 0  0.17798 0.15511 0  0.187467 0.151596 0  0.197468 0.150064 0  0.207571 0.150577 0  0.217365 0.153112 0  0.226448 0.157568 0  0.234448 0.16376 0  0.241038 0.171437 0  0.245948 0.180282 0  0.248976 0.189935 0  1.1 0 0  1.1 0.41 0  0.1 0.2 0  0.45 0.1 0  0.45 0.3 0  0.55 0 0  0.275 0.1 0  0.275 0.3 0  0.275 0 0  0.55 0.41 0  0 0.205 0  0.825 0 0  0.825 0.41 0  0.275 0.41 0  0.1 0.15 0  0.1875 0.1 0  0.1 0.25 0  0.1875 0.3 0  0.132322 0.2 0  0.241426 0.253518 0  0.241426 0.146482 0  0.264574 0.17974 0  0.264574 0.22026 0  0.138434 0.187348 0  0.153372 0.150948 0  0.148413 0.164094 0  0.176495 0.136535 0  0.22768 0.143571 0  0.138434 0.212652 0  0.148413 0.235906 0  0.176495 0.263465 0  0.22768 0.256429 0  0.23125 0.3 0  0.24769 0.24094 0  0.23125 0.1 0  0.24769 0.15906 0  0.26253 0.193641 0  0.190482 0.137872 0  0.166753 0.146661 0  0.157737 0.244461 0  0.190482 0.262128 0  0.203107 0.261264 0  0.253635 0.22977 0  0.203107 0.138736 0  0.253635 0.17023 0  0.261028 0.206206 0  0.167707 0.251809 0  0.143629 0.224191 0  0.215302 0.2591 0  0.270465 0.245894 0  0.215302 0.1409 0  0.270465 0.154106 0  0.284052 0.202587 0  0.14375 0.3 0  0.209375 0.3 0  0.225966 0.278501 0  0.209375 0.1 0  0.225966 0.121499 0  0.211613 0.273759 0  0.211613 0.126241 0  0.143629 0.175809 0  0.1 0.175 0  0.133484 0.164832 0  0.144491 0.249539 0  0.1 0.225 0  0.133484 0.235168 0  0.3625 0.3 0  0.25691 0.253381 0  0.25691 0.146619 0  0.277205 0.188698 0  0.184724 0.275712 0  0.237372 0.268285 0  0.184724 0.124288 0  0.237372 0.131715 0  0.197578 0.273149 0  0.193656 0.286994 0  0.197578 0.126851 0  0.193656 0.113006 0  0.122953 0.187671 0  0.118362 0.153758 0  0.155372 0.258107 0  0.122953 0.212329 0  0.118362 0.246242 0  0.276394 0.27264 0  0.276394 0.12736 0  0.280965 0.170013 0  0.253125 0.3 0  0.14375 0.1 0  0.253125 0.1 0  0.269489 0.26014 0  0.269489 0.13986 0  0.303639 0.184297 0  0.165625 0.3 0  0.134742 0.273113 0  0.257831 0.274737 0  0.255279 0.128499 0  0.3625 0.1 0  0.165625 0.1 0  0.162031 0.132368 0  0.134955 0.126405 0  0.149334 0.125568 0  0.142936 0.139597 0  0.12695 0.140259 0  0.242514 0.285501 0  0.242514 0.114499 0  0.1 0.125 0  0.117483 0.12555 0  0.11154 0.139776 0  0.121875 0.1 0  0.109143 0.1125 0  0.126805 0.114 0  0.220313 0.29129 0  0.351562 0.287369 0  0.207222 0.2866 0  0.220312 0.10871 0  0.1375 0 0  0.20625 0 0  0.207222 0.1134 0  0.11722 0.17118 0  0.1 0.1625 0  0.0778409 0.16875 0  0.0862762 0.15625 0  0 0.15375 0  0 0.1025 0  0.11722 0.22882 0  0.1 0.2375 0  0 0.3075 0  0.0862762 0.23125 0  0.0598995 0.222547 0  0.0860223 0.2125 0  0.289584 0.181469 0  0.300267 0.16446 0  0.163832 0.269071 0  0.149597 0.273325 0  0.1 0.275 0  0.268498 0.285953 0  0.31875 0.3 0  0.294154 0.254672 0  0.296875 0.3 0  0.293558 0.271845 0  0.285095 0.286799 0  0.324298 0.264316 0  0.307866 0.263745 0  0.317093 0.234901 0  0.315485 0.281219 0  0.316547 0.250625 0  0.344693 0.243731 0  0.331592 0.251147 0  0.35129 0.270663 0  0.338689 0.263683 0  0.340625 0.3 0  0.249849 0.264383 0  0.265097 0.11422 0  0.284688 0.156136 0  0.242188 0.324017 0  0.0856613 0.2625 0  0.132812 0.0612217 0  0.264062 0.0612217 0  0.198437 0.07598340000000001 0  0.0860223 0.1375 0  0.0794526 0.191089 0  0.285228 0.140397 0  0.298655 0.148737 0  0.31875 0.1 0  0.327335 0.15374 0  0.296875 0.1 0  0.312289 0.155283 0  0.313348 0.135607 0  0.321802 0.173916 0  0.298433 0.134116 0  0.112124 0.2625 0  0.127526 0.259083 0  0.121875 0.3 0  0.0682687 0.241503 0  0.1 0.2875 0  0.117762 0.28125 0  0.107813 0.3 0  0.103906 0.313849 0  0.0778409 0.28125 0  0.1375 0.41 0  0.0862762 0.29375 0  0.08886860000000001 0.24375 0  0.307812 0.338778 0  0.307812 0.292227 0  0.33216 0.279164 0  0.387888 0.266414 0  0.264063 0.31948 0  0.110937 0.07598340000000001 0  0.242188 0.07598340000000001 0  0.319914 0.11839 0  0.340625 0.1 0  0.334448 0.133793 0  0.329687 0.108539 0  0.346259 0.118491 0  0.360334 0.173636 0  0.327539 0.205033 0  0.132812 0.288712 0  0.362436 0.278836 0  0.368105 0.259418 0  0.4125 0.41 0  0.329687 0.324017 0  0.329687 0.292306 0  0.285938 0.318952 0  0.417187 0.338778 0  0.324481 0.14148 0  0.351562 0.106771 0  0.40625 0.1 0  0.341028 0.168342 0  0.319221 0.190479 0  0.335292 0.184501 0  0.305563 0.20794 0  0.220313 0.31948 0  0.132812 0.332772 0  0.0865876 0.311259 0  0.0598995 0.302453 0  0.0906541 0.343255 0  0.353543 0.255837 0  0.36574 0.237633 0  0.405007 0.254279 0  0.275795 0.352123 0  0.4125 0 0  0.35493 0.137394 0  0.366563 0.120618 0  0.35917 0.205246 0  0.198438 0.318952 0  0.0626109 0.263892 0  0.40625 0.3 0  0.354809 0.155936 0  0.386512 0.146872 0  0.373101 0.159939 0  0.384375 0.1 0  0.343394 0.19929 0  0.350682 0.185683 0  0.368101 0.189748 0  0.344016 0.221511 0  0.391108 0.213329 0  0.376279 0.204783 0  0.398843 0.182768 0  0.375804 0.222746 0  0.390665 0.196958 0  0.394004 0.23518 0  0.359883 0.222828 0  0.419908 0.204359 0  0.404243 0.204783 0  0.412615 0.224526 0  0.20625 0.41 0  0.165625 0.325257 0  0.0347982 0.244954 0  0.379558 0.247154 0  0.34165 0.147603 0  0.372264 0.136992 0  0.388988 0.121989 0  0.373437 0.108554 0  0.351562 0.31948 0  0.391367 0.16527 0  0.399572 0.223324 0  0.452011 0.227371 0  0.40877 0.239392 0  0.431491 0.237337 0  0.421224 0.250459 0  0.449619 0.262098 0  0.418865 0.276779 0  0.437063 0.252274 0  0.415673 0.263227 0  0.430988 0.266772 0  0.402767 0.273419 0  0.452967 0.244883 0  0.428125 0.3 0  0.408502 0.286186 0  0.384375 0.3 0  0.392267 0.285807 0  0.465927 0.219339 0  0.43489 0.283846 0  0.376424 0.286289 0  0.625 0.3 0  0.473533 0.205186 0  0.461713 0.255517 0  0.5375 0.3 0  0.465725 0.235405 0  0.44631 0.201425 0  0.471875 0.3 0  0.494307 0.227729 0  0.459448 0.206736 0  0.462294 0.180792 0  0.478933 0.227536 0  0.486793 0.21381 0  0.486322 0.251373 0  0.50065 0.215318 0  0.54005 0.175389 0  0.474633 0.189893 0  0.512916 0.208697 0  0.49531 0.199967 0  0.475889 0.175275 0  0.625 0.1 0  0.459311 0.153933 0  0.513645 0.242704 0  0.392892 0.248539 0  0.374815 0.271913 0  0.365974 0.14871 0  0.395312 0.109184 0  0.417061 0.123981 0  0.483196 0.277003 0  0.381967 0.179632 0  0.429898 0.219374 0  0.433473 0.206165 0  0.43149 0.181038 0  0.444208 0.215487 0  0.472985 0.247309 0  0.49375 0.3 0  0.475579 0.262714 0  0.49916 0.274293 0  0.501175 0.184809 0  0.514164 0.225681 0  0.543648 0.214977 0  0.5341630000000001 0.23481 0  0.527396 0.216171 0  0.5375 0.1 0  0.534548 0.202315 0  0.561545 0.192513 0  0.5494289999999999 0.201221 0  0.570923 0.218346 0  0.412582 0.149833 0  0.489327 0.264745 0  0.502439 0.254775 0  0.462391 0.271166 0  0.496775 0.241732 0  0.5294410000000001 0.268606 0  0.482812 0.291099 0  0.46879 0.285038 0  0.452663 0.284065 0  0.51789 0.257882 0  0.53408 0.252026 0  0.560142 0.243543 0  0.545708 0.243474 0  0.547532 0.229019 0  0.55282 0.265323 0  0.398971 0.153424 0  0.400349 0.135684 0  0.410135 0.168145 0  0.428823 0.161323 0  0.415266 0.183779 0  0.329687 0.0810483 0  0.395312 0.0612217 0  0.373437 0.318952 0  0.439062 0.324017 0  0.561816 0.229354 0  0.585029 0.239287 0  0.431827 0.139854 0  0.446796 0.168929 0  0.351562 0.07598340000000001 0  0.395313 0.318944 0  0.54337 0.150762 0  0.460937 0.31948 0  0.418412 0.137529 0  0.428125 0.1 0  0.442783 0.152332 0  0.450742 0.134294 0  0.373437 0.0805201 0  0.384383 0.342558 0  0.482812 0.318952 0  0.429239 0.127457 0  0.444274 0.117405 0  0.426548 0.113815 0  0.49375 0.1 0  0.488954 0.113984 0  0.457973 0.121842 0  0.471621 0.137346 0  0.515625 0.325257 0  0.48125 0.41 0  0.417187 0.07598340000000001 0  0.496363 0.126778 0  0.479043 0.155715 0  0.439062 0.0805201 0  0.481795 0.126919 0  0.471875 0.1 0  0.489227 0.142159 0  0.515625 0.1 0  0.520062 0.147117 0  0.501244 0.161791 0  0.505431 0.112984 0  0.505344 0.14029 0  0.526563 0.119081 0  0.5181750000000001 0.131908 0  0.539868 0.136937 0  0.460937 0.108383 0  0.474242 0.114415 0  0.460937 0.0810483 0  0.487841 0.167168 0  0.526563 0.0612217 0  0.526563 0.106406 0  0.537619 0.112743 0  0.58125 0.1 0  0.559375 0.1 0  0.482812 0.08105569999999999 0  0.471883 0.0587655 0  0.570312 0.129396 0  0.548437 0.07598340000000001 0  0.504687 0.08105569999999999 0  0.49375 0.0470127 0  0.570312 0.112663 0  0.592798 0.12103 0  0.553986 0.12103 0  0.570312 0.0805201 0  0.48125 0 0  0.114787 0.2 0  0.160769 0.284765 0  0.175816 0.288361 0  0.162602 0.116048 0  0.154687 0.07598340000000001 0  0.176562 0.0805201 0  0.0598995 0.147547 0  0.307812 0.109924 0  0.291279 0.117157 0  0.278491 0.112989 0  0.285937 0.07598340000000001 0  0.307812 0.0805201 0  0.296928 0.196743 0  0.318141 0.218507 0  0.330208 0.227509 0  0.301397 0.225668 0  0.302706 0.241401 0  0.292574 0.21424 0  0.282762 0.230935 0  0.284351 0.244775 0  0.269553 0.23261 0  0.278572 0.217242 0  0.226924 0.342606 0  0.446928 0.185396 0  0.515625 0.3 0  0.504687 0.288879 0  0.515256 0.276534 0  0.529479 0.285328 0  0.58125 0.3 0  0.541969 0.272936 0  0.559375 0.3 0  0.556796 0.282529 0  0.543473 0.287206 0  0.581429 0.267774 0  0.566728 0.271171 0  0.570869 0.255585 0  0.577404 0.283865 0  0.603125 0.3 0  0.597531 0.28035 0  0.570312 0.338778 0  0.592188 0.292492 0  0.603513 0.256094 0  0.614063 0.286265 0  0.610329 0.27064 0  0.632708 0.251285 0  0.657223 0.261594 0  0.618789 0.257807 0  0.614188 0.22987 0  0.630935 0.265614 
[...]
<PointData  Vectors="v"> 
	<DataArray  type="Float64"  Name="v"  NumberOfComponents="3" format="ascii">
0.0 0.0 0.0 0.0 0.0 0.0 0.0 0.0 0.0 0.0 0.0 0.0 0.7975261768343976 -0.1894854674648652 0.0 0.8414559359662684 0.1972963156699413 0.0 1.0260227823539039 -0.03242314457069604 0.0 0.9689755053846021 0.02725067282405719 0.0 0.0 0.0 0.0 0.0 0.0 0.0 0.0 0.0 0.0 0.0 0.0 0.0 0.0 0.0 0.0 0.0 0.0 0.0 0.0 0.0 0.0 0.0 0.0 0.0 0.0 0.0 0.0 0.0 0.0 0.0 0.0 0.0 0.0 0.0 0.0 0.0 0.0 0.0 0.0 0.0 0.0 0.0 0.0 0.0 0.0 0.0 0.0 0.0 0.0 0.0 0.0 0.0 0.0 0.0 0.0 0.0 0.0 0.0 0.0 0.0 0.0 0.0 0.0 0.0 0.0 0.0 0.0 0.0 0.0 0.0 0.0 0.0 0.0 0.0 0.0 0.0 0.0 0.0 0.0 0.0 0.0 0.0 0.0 0.0 0.0 0.0 0.0 0.0 0.0 0.0 0.0 0.0 0.0 0.0 0.0 0.0 0.0 0.0 0.0 0.76480079428396 -0.003291803036358154 0.0 1.21498923427666 0.12340002134636448 0.0 1.2298655202604476 -0.119513953424174 0.0 0.0 0.0 0.0 1.3024976513472004 -0.07478213337591061 0.0 1.3158111699081765 0.09135037222786338 0.0 0.0 0.0 0.0 0.0 0.0 0.0 1.0 0.0 0.0 0.0 0.0 0.0 0.0 0.0 0.0 0.0 0.0 0.0 0.8471645000409324 -0.22983927084720074 0.0 1.155422653626411 -0.30155103268429295 0.0 0.8680143523966222 0.22376754992028106 0.0 1.1696359439786257 0.30903941786104894 0.0 0.43215913294744385 -0.007054541949865673 0.0 0.16554249846202618 0.027490099200179155 0.0 0.1725072721737533 -0.023313488230602607 0.0 -0.046980494459481485 -0.06378864507615385 0.0 -0.04941666721335614 0.06408000395554088 0.0 0.33839831304386225 -0.28480077139926346 0.0 0.8741097545361693 -0.6740138736143689 0.0 0.6516983736707834 -0.69595019366116 0.0 1.2438416157451146 -0.6030291371497354 0.0 0.3046489420940319 0.003136415721266961 0.0 0.3338211971626142 0.26720608862199463 0.0 0.652792011149985 0.6711055360427808 0.0 1.2222836014391265 0.6035383045349942 0.0 0.2907415057311944 0.0009319753055220765 0.0 1.2838287279180864 0.19393987229641813 0.0 -0.020528814030858395 0.0544159480836403 0.0 1.2732560015111873 -0.1743669607135328 0.0 -0.017307238476678016 -0.05360834271631305 0.0 -0.03605415750188123 -0.02595667173215098 0.0 1.2253301880656267 -0.39841254047289393 0.0 1.129081636852905 -0.7313624703191424 0.0 0.8716069157671227 0.7772143775132017 0.0 1.2332349421057232 0.3995910361059632 0.0 0.9108672218169372 0.16508090502698597 0.0 -0.03782004047076159 0.0689826060497384 0.0 0.919003098167517 -0.16034507521344057 0.0 -0.038632704753971514 -0.06886245909945324 0.0 -0.030666156359854903 0.0221674183364908 0.0 1.061850911268339 0.7283890289365446 0.0 0.4478059753885016 0.5303515024320986 0.0 0.5375075222042259 0.03212510517078036 0.0 0.07518139769023399 0.04903679525482704 0.0 0.5471164624367546 -0.03060507295501987 0.0 0.08243043851732168 -0.049693417171291075 0.0 -0.11062391293516771 0.006185510482490262 0.0 0.9694655015799323 0.29594983934281077 0.0 1.2534532370982148 0.2467717746727812 0.0 1.297140027931298 0.20439307293846393 0.0 1.2265559195609383 -0.24261894596470623 0.0 1.2939558103611934 -0.1958470857896504 0.0 1.3062571716472466 0.25491556819124933 0.0 1.3084896106506225 -0.24543166722134574 0.0 0.45034142772208835 -0.5522562468549798 0.0 0.8060083957866429 -0.140079071020271 0.0 0.6796206923887771 -0.42127624035427086 0.0 0.8917922243391265 0.5900867569835715 0.0 0.8030831727459835 0.13946987733655286 0.0 0.6845379381889819 0.4160557707035501 0.0 1.2804226859723227 -0.04512855571208272 0.0 0.19203853151289282 0.033458634747090904 0.0 0.20947115042260703 -0.02726492311583912 0.0 -0.08449532432886472 -0.03587648468763733 0.0 1.3038966568608463 0.42829144716445305 0.0 0.8780121926898166 0.06768320443100467 0.0 1.2979216308358321 -0.4332708754896392 0.0 0.8975823561907497 -0.06028335404077867 0.0 1.3345111933127798 0.36060465716185813 0.0 1.2718456973425116 0.34620328893308044 0.0 1.3285951434027292 -0.3566998261205444 0.0 1.2618554075632131 -0.3261721511140062 0.0 0.5886058853917541 -0.16341952984028135 0.0 0.8034982035103546 -0.330961746739739 0.0 1.0322473767948122 0.5953786930087793 0.0 0.5962761673051044 0.14730847847579873 0.0 0.8191416067149363 0.3254800918292047 0.0 0.8756978140569629 0.03575954725477375 0.0 0.9058660991653532 -0.02576499114674149 0.0 -0.03822081258815951 -0.05875839761492497 0.0 1.3103590741500928 0.1345954497447884 0.0 0.93459546114288 -0.3059969636772282 0.0 1.292544476727998 -0.1180465042966692 0.0 0.4101033175347796 0.027192185445818848 0.0 0.4404801952850642 -0.017664558787808173 0.0 -0.12463220044196102 -0.028608377221134663 0.0 1.0629587195626424 0.32165384774929673 0.0 0.9530275473810711 0.37744030025016356 0.0 1.030366060184247 0.0705755495045451 0.0 0.9259627248405441 -0.04801327435689225 0.0 1.2745830188341358 0.05370066384026489 0.0 1.0341076442221646 -0.31844071488223197 0.0 1.0986637599813436 -0.5588199219795931 0.0 0.9405608966661749 -0.3806686198851222 0.0 1.0125531466405437 -0.42571144385062404 0.0 0.9477939807898895 -0.5391499244762356 0.0 0.8747273328224617 -0.40269246722884666 0.0 1.3112788922367529 0.15697661923679332 0.0 1.3028532423513295 -0.14617571762616083 0.0 0.8563038853432381 -0.23087037049189285 0.0 0.8851996946027249 -0.3035289930324263 0.0 0.8588728049817529 -0.2953636009686688 0.0 0.8538673218351238 -0.24610184982431996 0.0 0.8576932425483038 -0.2453858372129644 0.0 0.9023674744851304 -0.3095869387024229 0.0 1.317191276717148 0.22871804892110725 0.0 1.174618253859973 -0.039386529020060436 0.0 1.3287669955164985 0.2893042318365556 0.0 1.3074373869117328 -0.20848766454859272 0.0 0.0 0.0 0.0 0.0 0.0 0.0 1.310820835626663 -0.27559477095635787 0.0 0.7200024794989639 -0.2688897207571585 0.0 0.8246640942547531 -0.21002749722393763 0.0 0.8737765859618143 -0.11014433003512068 0.0 0.8656451392746238 -0.16228418907005715 0.0 0.9375 0.0 0.0 0.7500000000000001 0.0 0.0 0.7275764879571593 0.2613670649964351 0.0 0.8281158621613036 0.19595306117072075 0.0 0.7499999999999999 0.0 0.0 0.8725597631456307 0.12443150058872618 0.0 0.9301263310410816 0.040834566834350806 0.0 0.8509041151242058 0.04287830200946477 0.0 -0.09402900390156828 -0.041240053811218945 0.0 0.010520655174116933 -0.03977735954677015 0.0 1.1393021067312679 0.5368841126085742 0.0 1.0336905760137463 0.4572642959660923 0.0 0.8839937277302565 0.23717287350414726 0.0 1.2519948049827865 0.08537400875772982 0.0 1.30355653331202 0.015304669480118691 0.0 0.28942715198309477 0.019766677665326235 0.0 1.3169658323457987 0.049879515010716496 0.0 0.8222957237643158 0.01480909325438127 0.0 1.2322971994474843 0.054289145184339235 0.0 0.5877729235997415 -0.011758247174991068 0.0 0.5523720492554131 0.00298751272004653 0.0 -0.0005431820055300284 0.02865582026359062 0.0 1.076815939836339 0.0006092288865435089 0.0 0.23449975610405177 0.013728368195483981 0.0 0.14616283617491949 0.004406784978714741 0.0 0.2664074930331539 0.004267367445035825 0.0 0.7922619642536125 -0.03870095718336368 0.0 0.5839759951794858 -0.021052584820634636 0.0 1.298203196617257 -0.01878318247796116 0.0 0.6066884722397425 0.0294442352635109 0.0 1.2636695025525224 -0.08425706355019456 0.0 0.08872153992864587 -0.04226500990677862 0.0 1.151926274547902 0.11559989283829021 0.0 0.8852602948692107 0.17417975586341986 0.0 0.6962298606285661 -0.15634571256155252 0.0 1.0455558181509725 -0.05694493138938863 0.0 1.0188060778272918 -0.18341115617645573 0.0 0.8665621889951566 -0.17948570729168503 0.0 0.877871972536043 -0.026539468908057626 0.0 0.43451156264121577 -0.014186803194224416 0.0 0.2411516143103693 -0.019541613499411487 0.0 1.2926128927708287 0.0015899051717254689 0.0 0.19041316424548832 -0.008897504709358704 0.0 1.3038091407259873 -0.03482118108887071 0.0 0.14226219636023452 -0.02142378630667187 0.0 0.6113891947096851 0.013952587703964361 0.0 -0.07271649112738272 -0.026159958084549132 0.0 0.6444249424906295 0.0022099658486488495 0.0 0.8845731690282643 0.2885481168473302 0.0 0.888327113760366 0.4016881802112685 0.0 0.8869638123431433 0.2545997539481293 0.0 0.9140798346814802 0.10649966836968391 0.0 0.8673715171602125 0.21352687588625485 0.0 0.9096073451867797 0.2911382379385497 0.0 0.8587235154633135 0.2212393126906904 0.0 0.8019278879531583 0.17170892409981717 0.0 0.868195350514823 0.15553533706413822 0.0 0.0 0.0 0.0 0.8422862512806805 0.16901241812339343 0.0 0.8737520890328248 0.16675700210957403 0.0 1.1189951898912183 0.013178821621681956 0.0 1.270388646088598 0.02342753700922354 0.0 1.0148723715511467 -0.01996967660975154 0.0 0.7261150269812264 -0.06540243914627616 0.0 1.214792901157057 0.08939177397709508 0.0 0.7162853951943138 -0.16502211195987265 0.0 1.124711509726614 -0.10966177211445828 0.0 1.1028069168227579 0.013418200477900153 0.0 1.287218625582257 0.030584285923455457 0.0 0.6896751752780391 0.03176344850208739 0.0 1.2511431232788879 0.021615442404658805 0.0 1.092939459224125 0.04464141982083097 0.0 -0.06486229507401006 -0.0072210764990917305 0.0 -0.19295776997826558 0.005290343237599663 0.0 0.9507518257726595 0.3241128550989555 0.0 1.0094304603050581 -0.05504314608702867 0.0 0.5157065400090298 -0.03744628505155258 0.0 0.0 0.0 0.0 1.223220814864897 -0.0036580956689178587 0.0 1.255466340865998 -0.012539172488964552 0.0 1.2350200679254708 0.059464393554198136 0.0 1.1054511144410621 -0.07300621332552118 0.0 0.4576841719409451 0.008351261801543252 0.0 1.2497941902086909 0.04765827471260568 0.0 1.2488681016351142 0.09465433955472574 0.0 -0.01117551083185291 -0.014518379757817513 0.0 -0.16801025646227516 -0.014628674906444483 0.0 -0.15674113286497937 -0.01605960908265164 0.0 -0.15492256016073047 0.013461152960175289 0.0 1.1526872764603007 0.16611161304417987 0.0 0.7729407223851911 0.18146770448272403 0.0 0.7778041943317078 0.14590373778607615 0.0 0.7858190039533893 0.1022833825460212 0.0 0.61831899480896 0.10297183568306255 0.0 0.4059551192703482 -0.020053854307772453 0.0 0.07074236272246195 -0.0032605767850843645 0.0 0.4620232222408358 -0.057063103482575525 0.0 0.9900358388085474 0.04271108946517943 0.0 0.0 0.0 0.0 0.6187686972274816 0.04189042610888594 0.0 1.0492772897016924 0.06673385194906362 0.0 -0.22310698201578552 0.002127475409092664 0.0 1.0801352263611916 0.22185710132988604 0.0 0.9013155731189774 0.10839385817429832 0.0 1.2596506404171761 -0.09036372022668547 0.0 0.19239818557910338 0.007338927023415978 0.0 0.4405144145748568 0.04886691383097921 0.0 0.1481289916529361 0.013472648206044229 0.0 1.265253046728661 0.07673919010407389 0.0 -0.21406701669232553 -0.0019077323719021082 0.0 -0.17235319586151832 -0.010879456645499422 0.0 -0.20307534516088743 -0.005547984102343424 0.0 -0.12890438984659291 0.014202370213861441 0.0 -0.19668404173226395 -0.0012411424745328318 0.0 -0.23247273234408475 0.0005767201170305616 0.0 -0.14498262109087023 0.004178722442082891 0.0 -0.11824710266954885 0.0014271446936123943 0.0 -0.23459342223638158 -0.0015712154461876165 0.0 0.06370363662670255 -0.016296288832302126 0.0 -0.11896285601638433 0.008314570471852889 0.0 -0.22996846649581848 -0.0031759983038141355 0.0 -0.23482877029308263 -0.0022225922916298203 0.0 -0.07365317382208503 -0.014891988548909626 0.0 0.0 0.0 0.0 0.9370395058643393 0.2277936284245364 0.0 0.9517157832097303 0.038486667668453906 0.0 0.26013436001240886 -0.02487348067180937 0.0 0.33879729515694723 0.011741519731703483 0.0 0.6592444314751259 0.0565333303853488 0.0 1.0339917661813012 0.08584683561312255 0.0 1.2270075622917844 0.07238561779726697 0.0 1.249944434753652 -0.024987614113716798 0.0 0.08386565471262157 0.017531125554703816 0.0 -0.09926770053099487 -0.00803315273468354 0.0 0.022108227360415466 -0.03595892154019193 0.0 0.1586300672602325 -0.0319696883560083 0.0 0.1596633413391511 -0.04248215524600611 0.0 0.40852515754011054 -0.061256074420502196 0.0 0.7282101572722314 -0.1045633980111941 0.0 0.9977093041894414 -0.10188865582559617 0.0 0.48264409682653825 -0.07632125491403773 0.0 0.6941270854857877 -0.08208934417849208 0.0 0.8017713121756571 -0.09927550483764985 0.0 0.9143015677072699 -0.08700811401704556 0.0 0.354574170568512 -0.07030467099743051 0.0 1.2452163092949715 -0.1061514695361789 0.0 1.1481399925273679 -0.09764927708015537 0.0 1.27221591190081 -0.0687282039726021 0.0 1.144552136378592 -0.08291237952802498 0.0 -0.07012713314305921 -0.02699061517760168 0.0 1.1222584580839527 -0.11682369432039416 0.0 1.1534066167262729 -0.06968124053498587 0.0 1.1050563413067005 -0.10120049118788586 0.0 -0.1714335301477903 -0.005963443750206171 0.0 0.6049571340147186 -0.09785975034085437 0.0 1.1654590802440683 -0.13199808264249588 0.0 0.18971532184652232 -0.057281835572318494 0.0 -0.21264638479340553 -0.0010904681765373477 0.0 1.2144555741096075 -0.12761457732437473 0.0 0.11096825352539988 -0.0526041107711016 0.0 -0.18693250050822705 -0.007703948564801187 0.0 -0.04426584090828327 0.031943850439303194 0.0 0.0742795712148447 -0.047078908396007535 0.0 -0.0945171083245107 -0.022371235838427653 0.0 0.5668780570996353 -0.10163597722231923 0.0 -0.05194445969337921 -0.027874163031617334 0.0 0.21086324535845913 0.06341416236356973 0.0 -0.125722759945543 0.018744730354144423 0.0 -0.08184096458511239 -0.015570458140950172 0.0 -0.1386771166621697 0.0027616333139666664 0.0 0.06541514541038357 0.04743596670846692 0.0 1.0696967152284245 0.09977654400499468 0.0 0.44467805547214106 0.08563422450760481 0.0 0.4427567266329364 -0.09180362307269072 0.0 0.3125329180657009 -0.03722952241294151 0.0 0.845437035447774 -0.05994933755416948 0.0 0.3593420411955563 0.02854524165412352 0.0 1.2118525620791283 0.09389906420261974 0.0 1.0134925797597405 0.10994352241625867 0.0 1.0443603883135233 -0.13620243293108728 0.0 -0.12128541812814343 -0.0005133654409008716 0.0 -0.11942804715748524 -0.01596485365137332 0.0 -0.2159552775339461 -0.005030987067495088 0.0 -0.09448470814748008 0.01924093854983986 0.0 -0.1441198411083472 -0.015597765345026441 0.0 0.4500836740011139 -0.08686138690699609 0.0 1.1984269522708366 -0.13122321101384832 0.0 0.786169546102036 -0.11801935973764022 0.0 1.0167962908727926 -0.13870539772751922 0.0 -0.020891723600836305 0.034350406767988124 0.0 0.1206828100069119 -0.05320452155113919 0.0 0.04100590457807185 -0.03194661353337003 0.0 0.3324054977759629 -0.07805966310123931 0.0 0.01608800853034329 -0.03337012577584035 0.0 1.1426567884444094 0.132385770483816 0.0 -0.05534543186984429 -0.0016243068123271546 0.0 0.04462965850058436 0.023243836874629057 0.0 -0.019785188911265947 0.001114183002297267 0.0 0.14727838317183653 -0.04073361180411419 0.0 0.4307999224428914 0.06241700959252603 0.0 0.8468078637735513 -0.12659143455702368 0.0 0.6696198140418038 -0.11411244972702862 0.0 0.9347222159299585 -0.12404278655355347 0.0 0.38504150454554376 -0.08440902889800019 0.0 0.9561210508741306 -0.13651232733482407 0.0 1.1799231806710757 -0.13610503195141596 0.0 1.1377452391215948 -0.13370146213967177 0.0 1.1259519671621725 -0.12596671312198543 0.0 0.758738914645917 -0.12273744769427582 0.0 0.6725913363750757 -0.114071233483048 0.0 0.5583658564724752 -0.0980385788289743 0.0 0.5270090887437832 -0.09789805348121199 0.0 0.25589276561527424 -0.06576185733861173 0.0 0.928466624925208 -0.1314944702017779 0.0 0.3222152413694884 0.04397864387701161 0.0 0.7411671768612599 0.08150497179121416 0.0 0.06393127907956836 0.02529426939598013 0.0 0.22311384148977298 0.050336326268715884 0.0 -0.1431762117358801 0.009613797768904624 0.0 1.228135821508396 0.014156555880839895 0.0 1.0786815213112504 0.06535944176815127 0.0 1.24803814573176 -0.04870604444368635 0.0 1.1840506378521531 -0.09674083841106518 0.0 0.2953922884789404 -0.06709574689880445 0.0 0.527106066483504 -0.08735325539313298 0.0 0.6998007580093032 0.09725333151470204 0.0 0.11571423311572207 0.045626772539372876 0.0 1.1947618654154424 0.03662018086282567 0.0 1.2354214838644582 -0.06950610009474084 0.0 0.685980781005528 0.11795496896214232 0.0 1.1875249242686288 -0.11008315603345885 0.0 0.727169318314235 0.09148884652639522 0.0 1.2330037260885314 0.11201229628003374 0.0 0.44176183529213353 0.07897555957448385 0.0 0.8519009381647255 0.11989529669155724 0.0 1.2169607116122116 0.057488974438259226 0.0 1.098334067143503 -0.051733387984596 0.0 1.1703664429946778 -0.1167933967577944 0.0 0.9591829688840742 0.11325373662358773 0.0 1.1225917088916433 0.12943292876378137 0.0 1.1646269827572389 0.11938872654314336 0.0 1.1805941721112367 0.13548299747652431 0.0 1.1490784617588508 0.14458258812117822 0.0 1.0724907856030845 0.1348546350505871 0.0 0.821549537190972 0.12551292370116982 0.0 1.0999013051155058 -0.11219214890624885 0.0 0.0 0.0 0.0 1.1659598607572712 0.0885525710323678 0.0 1.0241841300585406 0.1434957026664859 0.0 0.45091584941352736 0.0921855728215777 0.0 1.174683523032691 0.10499017662625358 0.0 1.014462421725593 0.14121859709955817 0.0 1.1986811505270407 0.13023745341618567 0.0 0.7556810429248956 0.12423385956106164 0.0 1.16067978149449 0.1353714692677442 0.0 0.7130036995929682 0.1227592214237696 0.0 0.3763672325984867 0.08755861888626568 0.0 1.1466901884567664 0.14514661051888547 0.0 0.8181567813081667 0.13212228125441863 0.0 1.1060615111096594 0.14578689207718293 0.0 0.9692516799971245 0.14337624736446714 0.0 0.9147081473369013 0.13791505967523932 0.0 1.1908269728071301 0.13477433942829378 0.0 1.1491100409135464 0.14067641960204655 0.0 1.1548359451007548 0.11500147988080767 0.0 0.23791237761405762 0.06958751839403372 0.0 0.9302189384801197 0.09068140395640996 0.0 1.1530789308271627 0.1404434790909835 0.0 1.1329456009765841 0.14131896217900486 0.0 1.1041526629964307 0.11960457150812462 0.0 1.1223446208547918 0.12809790878411634 0.0 1.128896364881191 0.11745629577164206 0.0 0.9932983582876477 0.08578382964288682 0.0 1.0238165987796668 0.1351201889107093 0.0 1.0239502865924208 0.10490773075172934 0.0 1.1098411504904953 0.11702554611687623 0.0 0.8159627585350406 0.07255090716749725 0.0 1.1160336416322374 0.13234315080008935 0.0 1.081170829425278 0.12701428032228193 0.0 1.0891173618445527 0.14069218269108139 0.0 1.0295718023491407 0.10409014756049383 0.0 0.0 0.0 0.0 0.6486722660567121 -0.008280492594056424 0.0 1.091827936059445 0.40854872976171897 0.0 1.1842009636661908 0.38594023873703515 0.0 1.098739208669646 -0.4034532217211897 0.0 0.8600283266226999 -0.2074214972920481 0.0 0.9720058391203455 -0.22487163448371397 0.0 0.8937647990965708 -0.08363604798912187 0.0 1.2594365619607568 -0.012101187014532739 0.0 1.166812055398083 -0.025349405484878202 0.0 1.25073446291458 -0.05521990316097111 0.0 1.1779635555106254 -0.037204524043197615 0.0 1.219362229034956 -0.010977667865168064 0.0 -0.14227902318659721 -0.008415505382833517 0.0 -0.13335374001881933 0.023706691972765807 0.0 -0.07324302182402666 0.021490904750375607 0.0 -0.07748005599805058 0.038861293127484965 0.0 0.06628512748481806 0.0361066072885241 0.0 -0.11559136154530984 0.030200366167048853 0.0 -0.03882502635308838 0.05746609044373588 0.0 0.0891296981053364 0.04457271419596011 0.0 -0.03328930600857886 0.06975424415103382 0.0 -0.08155873232562372 0.04673741889729657 0.0 0.9873851340794876 0.11930416321282052 0.0 -0.12476480706100575 0.01882168572280371 0.0 1.1822955481496737 -0.1326726368643838 0.0 1.1592104551817934 -0.14090985553050756 0.0 1.0524728285948113 -0.1407206222137425 0.0 1.131026247945937 -0.1405921365458323 0.0 1.1342028274427824 -0.1192539422860477 0.0 1.020779360074277 -0.13814812923117528 0.0 1.1493359432356114 -0.12658621135261425 0.0 1.1079789130999322 -0.1361907255287869 0.0 1.1361415636324774 -0.13750831251786905 0.0 0.9801620083843751 -0.12532026429538742 0.0 1.0118482709520686 -0.13179810599027222 0.0 0.7956204973382953 -0.11696442625654571 0.0 1.1111572554712255 -0.12979753324354634 0.0 1.118531697125935 -0.11126032072853957 0.0 1.0895552521102543 -0.12200246017498967 0.0 0.9493942266713102 -0.08822122119985112 0.0 1.1287208281067256 -0.11970055990287065 0.0 0.8424485232403202 -0.1084798489011682 0.0 1.109005509425133 -0.11263758248653906 0.0 1.0215142379254287 -0.11561272159869602 0.0 0.8036250887557034 -0.09324273058175091 0.0 0.9513892848133094 -0.09078109721577807 0.0 0.8813511880265533 -0.10457609552191184 0.0 0.41870859903756974 -0.0637772015716171 0.0 0.9807738308131098 -0.10445133439803543 0.0 0.658076094025844 -0.08669194717936106 0.0 1.08091515