<?xml version="1.0"?>
<VTKFile type="UnstructuredGrid"  version="0.1"  >
<UnstructuredGrid>
<Piece  NumberOfPoints="1289" NumberOfCells="2413">
<Points>
<DataArray  type="Float64"  NumberOfComponents="3"  format="ascii">0 0 0  0 0.41 0  2.2 0.41 0  2.2 0 0  0.1 0.1 0  0.1 0.3 0  0.8 0.3 0  0.8 0.1 0  0.25 0.2 0  0.248976 0.210065 0  0.245948 0.219718 0  0.241038 0.228563 0  0.234448 0.23624 0  0.226448 0.242432 0  0.217365 0.246888 0  0.207571 0.249423 0  0.197468 0.249936 0  0.187467 0.248404 0  0.17798 0.24489 0  0.169395 0.239539 0  0.162062 0.232569 0  0.156283 0.224265 0  0.152293 0.214968 0  0.150257 0.205058 0  0.150257 0.194942 0  0.152293 0.185032 0  0.156283 0.175735 0  0.162062 0.167431 0  0.169395 0.160461 0  0.17798 0.15511 0  0.187467 0.151596 0  0.197468 0.150064 0  0.207571 0.150577 0  0.217365 0.153112 0  0.226448 0.157568 0  0.234448 0.16376 0  0.241038 0.171437 0  0.245948 0.180282 0  0.248976 0.189935 0  1.1 0 0  1.1 0.41 0  0.1 0.2 0  0.45 0.1 0  0.45 0.3 0  0.55 0 0  0.275 0.1 0  0.275 0.3 0  0.275 0 0  0.55 0.41 0  0 0.205 0  0.825 0 0  0.825 0.41 0  0.275 0.41 0  0.1 0.15 0  0.1875 0.1 0  0.1 0.25 0  0.1875 0.3 0  0.132322 0.2 0  0.241426 0.253518 0  0.241426 0.146482 0  0.264574 0.17974 0  0.264574 0.22026 0  0.138434 0.187348 0  0.153372 0.150948 0  0.148413 0.164094 0  0.176495 0.136535 0  0.22768 0.143571 0  0.138434 0.212652 0  0.148413 0.235906 0  0.176495 0.263465 0  0.22768 0.256429 0  0.23125 0.3 0  0.24769 0.24094 0  0.23125 0.1 0  0.24769 0.15906 0  0.26253 0.193641 0  0.190482 0.137872 0  0.166753 0.146661 0  0.157737 0.244461 0  0.190482 0.262128 0  0.203107 0.261264 0  0.253635 0.22977 0  0.203107 0.138736 0  0.253635 0.17023 0  0.261028 0.206206 0  0.167707 0.251809 0  0.143629 0.224191 0  0.215302 0.2591 0  0.270465 0.245894 0  0.215302 0.1409 0  0.270465 0.154106 0  0.284052 0.202587 0  0.14375 0.3 0  0.209375 0.3 0  0.225966 0.278501 0  0.209375 0.1 0  0.225966 0.121499 0  0.211613 0.273759 0  0.211613 0.126241 0  0.143629 0.175809 0  0.1 0.175 0  0.133484 0.164832 0  0.144491 0.249539 0  0.1 0.225 0  0.133484 0.235168 0  0.3625 0.3 0  0.25691 0.253381 0  0.25691 0.146619 0  0.277205 0.188698 0  0.184724 0.275712 0  0.237372 0.268285 0  0.184724 0.124288 0  0.237372 0.131715 0  0.197578 0.273149 0  0.193656 0.286994 0  0.197578 0.126851 0  0.193656 0.113006 0  0.122953 0.187671 0  0.118362 0.153758 0  0.155372 0.258107 0  0.122953 0.212329 0  0.118362 0.246242 0  0.276394 0.27264 0  0.276394 0.12736 0  0.280965 0.170013 0  0.253125 0.3 0  0.14375 0.1 0  0.253125 0.1 0  0.269489 0.26014 0  0.269489 0.13986 0  0.303639 0.184297 0  0.165625 0.3 0  0.134742 0.273113 0  0.257831 0.274737 0  0.255279 0.128499 0  0.3625 0.1 0  0.165625 0.1 0  0.162031 0.132368 0  0.134955 0.126405 0  0.149334 0.125568 0  0.142936 0.139597 0  0.12695 0.140259 0  0.242514 0.285501 0  0.242514 0.114499 0  0.1 0.125 0  0.117483 0.12555 0  0.11154 0.139776 0  0.121875 0.1 0  0.109143 0.1125 0  0.126805 0.114 0  0.220313 0.29129 0  0.351562 0.287369 0  0.207222 0.2866 0  0.220312 0.10871 0  0.1375 0 0  0.20625 0 0  0.207222 0.1134 0  0.11722 0.17118 0  0.1 0.1625 0  0.0778409 0.16875 0  0.0862762 0.15625 0  0 0.15375 0  0 0.1025 0  0.11722 0.22882 0  0.1 0.2375 0  0 0.3075 0  0.0862762 0.23125 0  0.0598995 0.222547 0  0.0860223 0.2125 0  0.289584 0.181469 0  0.300267 0.16446 0  0.163832 0.269071 0  0.149597 0.273325 0  0.1 0.275 0  0.268498 0.285953 0  0.31875 0.3 0  0.294154 0.254672 0  0.296875 0.3 0  0.293558 0.271845 0  0.285095 0.286799 0  0.324298 0.264316 0  0.307866 0.263745 0  0.317093 0.234901 0  0.315485 0.281219 0  0.316547 0.250625 0  0.344693 0.243731 0  0.331592 0.251147 0  0.35129 0.270663 0  0.338689 0.263683 0  0.340625 0.3 0  0.249849 0.264383 0  0.265097 0.11422 0  0.284688 0.156136 0  0.242188 0.324017 0  0.0856613 0.2625 0  0.132812 0.0612217 0  0.264062 0.0612217 0  0.198437 0.07598340000000001 0  0.0860223 0.1375 0  0.0794526 0.191089 0  0.285228 0.140397 0  0.298655 0.148737 0  0.31875 0.1 0  0.327335 0.15374 0  0.296875 0.1 0  0.312289 0.155283 0  0.313348 0.135607 0  0.321802 0.173916 0  0.298433 0.134116 0  0.112124 0.2625 0  0.127526 0.259083 0  0.121875 0.3 0  0.0682687 0.241503 0  0.1 0.2875 0  0.117762 0.28125 0  0.107813 0.3 0  0.103906 0.313849 0  0.0778409 0.28125 0  0.1375 0.41 0  0.0862762 0.29375 0  0.08886860000000001 0.24375 0  0.307812 0.338778 0  0.307812 0.292227 0  0.33216 0.279164 0  0.387888 0.266414 0  0.264063 0.31948 0  0.110937 0.07598340000000001 0  0.242188 0.07598340000000001 0  0.319914 0.11839 0  0.340625 0.1 0  0.334448 0.133793 0  0.329687 0.108539 0  0.346259 0.118491 0  0.360334 0.173636 0  0.327539 0.205033 0  0.132812 0.288712 0  0.362436 0.278836 0  0.368105 0.259418 0  0.4125 0.41 0  0.329687 0.324017 0  0.329687 0.292306 0  0.285938 0.318952 0  0.417187 0.338778 0  0.324481 0.14148 0  0.351562 0.106771 0  0.40625 0.1 0  0.341028 0.168342 0  0.319221 0.190479 0  0.335292 0.184501 0  0.305563 0.20794 0  0.220313 0.31948 0  0.132812 0.332772 0  0.0865876 0.311259 0  0.0598995 0.302453 0  0.0906541 0.343255 0  0.353543 0.255837 0  0.36574 0.237633 0  0.405007 0.254279 0  0.275795 0.352123 0  0.4125 0 0  0.35493 0.137394 0  0.366563 0.120618 0  0.35917 0.205246 0  0.198438 0.318952 0  0.0626109 0.263892 0  0.40625 0.3 0  0.354809 0.155936 0  0.386512 0.146872 0  0.373101 0.159939 0  0.384375 0.1 0  0.343394 0.19929 0  0.350682 0.185683 0  0.368101 0.189748 0  0.344016 0.221511 0  0.391108 0.213329 0  0.376279 0.204783 0  0.398843 0.182768 0  0.375804 0.222746 0  0.390665 0.196958 0  0.394004 0.23518 0  0.359883 0.222828 0  0.419908 0.204359 0  0.404243 0.204783 0  0.412615 0.224526 0  0.20625 0.41 0  0.165625 0.325257 0  0.0347982 0.244954 0  0.379558 0.247154 0  0.34165 0.147603 0  0.372264 0.136992 0  0.388988 0.121989 0  0.373437 0.108554 0  0.351562 0.31948 0  0.391367 0.16527 0  0.399572 0.223324 0  0.452011 0.227371 0  0.40877 0.239392 0  0.431491 0.237337 0  0.421224 0.250459 0  0.449619 0.262098 0  0.418865 0.276779 0  0.437063 0.252274 0  0.415673 0.263227 0  0.430988 0.266772 0  0.402767 0.273419 0  0.452967 0.244883 0  0.428125 0.3 0  0.408502 0.286186 0  0.384375 0.3 0  0.392267 0.285807 0  0.465927 0.219339 0  0.43489 0.283846 0  0.376424 0.286289 0  0.625 0.3 0  0.473533 0.205186 0  0.461713 0.255517 0  0.5375 0.3 0  0.465725 0.235405 0  0.44631 0.201425 0  0.471875 0.3 0  0.494307 0.227729 0  0.459448 0.206736 0  0.462294 0.180792 0  0.478933 0.227536 0  0.486793 0.21381 0  0.486322 0.251373 0  0.50065 0.215318 0  0.54005 0.175389 0  0.474633 0.189893 0  0.512916 0.208697 0  0.49531 0.199967 0  0.475889 0.175275 0  0.625 0.1 0  0.459311 0.153933 0  0.513645 0.242704 0  0.392892 0.248539 0  0.374815 0.271913 0  0.365974 0.14871 0  0.395312 0.109184 0  0.417061 0.123981 0  0.483196 0.277003 0  0.381967 0.179632 0  0.429898 0.219374 0  0.433473 0.206165 0  0.43149 0.181038 0  0.444208 0.215487 0  0.472985 0.247309 0  0.49375 0.3 0  0.475579 0.262714 0  0.49916 0.274293 0  0.501175 0.184809 0  0.514164 0.225681 0  0.543648 0.214977 0  0.5341630000000001 0.23481 0  0.527396 0.216171 0  0.5375 0.1 0  0.534548 0.202315 0  0.561545 0.192513 0  0.5494289999999999 0.201221 0  0.570923 0.218346 0  0.412582 0.149833 0  0.489327 0.264745 0  0.502439 0.254775 0  0.462391 0.271166 0  0.496775 0.241732 0  0.5294410000000001 0.268606 0  0.482812 0.291099 0  0.46879 0.285038 0  0.452663 0.284065 0  0.51789 0.257882 0  0.53408 0.252026 0  0.560142 0.243543 0  0.545708 0.243474 0  0.547532 0.229019 0  0.55282 0.265323 0  0.398971 0.153424 0  0.400349 0.135684 0  0.410135 0.168145 0  0.428823 0.161323 0  0.415266 0.183779 0  0.329687 0.0810483 0  0.395312 0.0612217 0  0.373437 0.318952 0  0.439062 0.324017 0  0.561816 0.229354 0  0.585029 0.239287 0  0.431827 0.139854 0  0.446796 0.168929 0  0.351562 0.07598340000000001 0  0.395313 0.318944 0  0.54337 0.150762 0  0.460937 0.31948 0  0.418412 0.137529 0  0.428125 0.1 0  0.442783 0.152332 0  0.450742 0.134294 0  0.373437 0.0805201 0  0.384383 0.342558 0  0.482812 0.318952 0  0.429239 0.127457 0  0.444274 0.117405 0  0.426548 0.113815 0  0.49375 0.1 0  0.488954 0.113984 0  0.457973 0.121842 0  0.471621 0.137346 0  0.515625 0.325257 0  0.48125 0.41 0  0.417187 0.07598340000000001 0  0.496363 0.126778 0  0.479043 0.155715 0  0.439062 0.0805201 0  0.481795 0.126919 0  0.471875 0.1 0  0.489227 0.142159 0  0.515625 0.1 0  0.520062 0.147117 0  0.501244 0.161791 0  0.505431 0.112984 0  0.505344 0.14029 0  0.526563 0.119081 0  0.5181750000000001 0.131908 0  0.539868 0.136937 0  0.460937 0.108383 0  0.474242 0.114415 0  0.460937 0.0810483 0  0.487841 0.167168 0  0.526563 0.0612217 0  0.526563 0.106406 0  0.537619 0.112743 0  0.58125 0.1 0  0.559375 0.1 0  0.482812 0.08105569999999999 0  0.471883 0.0587655 0  0.570312 0.129396 0  0.548437 0.07598340000000001 0  0.504687 0.08105569999999999 0  0.49375 0.0470127 0  0.570312 0.112663 0  0.592798 0.12103 0  0.553986 0.12103 0  0.570312 0.0805201 0  0.48125 0 0  0.114787 0.2 0  0.160769 0.284765 0  0.175816 0.288361 0  0.162602 0.116048 0  0.154687 0.07598340000000001 0  0.176562 0.0805201 0  0.0598995 0.147547 0  0.307812 0.109924 0  0.291279 0.117157 0  0.278491 0.112989 0  0.285937 0.07598340000000001 0  0.307812 0.0805201 0  0.296928 0.196743 0  0.318141 0.218507 0  0.330208 0.227509 0  0.301397 0.225668 0  0.302706 0.241401 0  0.292574 0.21424 0  0.282762 0.230935 0  0.284351 0.244775 0  0.269553 0.23261 0  0.278572 0.217242 0  0.226924 0.342606 0  0.446928 0.185396 0  0.515625 0.3 0  0.504687 0.288879 0  0.515256 0.276534 0  0.529479 0.285328 0  0.58125 0.3 0  0.541969 0.272936 0  0.559375 0.3 0  0.556796 0.282529 0  0.543473 0.287206 0  0.581429 0.267774 0  0.566728 0.271171 0  0.570869 0.255585 0  0.577404 0.283865 0  0.603125 0.3 0  0.597531 0.28035 0  0.570312 0.338778 0  0.592188 0.292492 0  0.603513 0.256094 0  0.614063 0.286265 0  0.610329 0.27064 0  0.632708 0.251285 0  0.657223 0.261594 0  0.618789 0.257807 0  0.614188 0.22987 0  0.630935 0.265614 
[...]
<PointData  Vectors="v"> 
	<DataArray  type="Float64"  Name="v"  NumberOfComponents="3" format="ascii">
0.0 0.0 0.0 0.0 0.0 0.0 0.0 0.0 0.0 0.0 0.0 0.0 0.7974151526082003 -0.18891388623088815 0.0 0.8413052857736016 0.19852625120929154 0.0 1.0253641734502357 -0.03234406525178071 0.0 0.9692683440753096 0.026757179599847695 0.0 0.0 0.0 0.0 0.0 0.0 0.0 0.0 0.0 0.0 0.0 0.0 0.0 0.0 0.0 0.0 0.0 0.0 0.0 0.0 0.0 0.0 0.0 0.0 0.0 0.0 0.0 0.0 0.0 0.0 0.0 0.0 0.0 0.0 0.0 0.0 0.0 0.0 0.0 0.0 0.0 0.0 0.0 0.0 0.0 0.0 0.0 0.0 0.0 0.0 0.0 0.0 0.0 0.0 0.0 0.0 0.0 0.0 0.0 0.0 0.0 0.0 0.0 0.0 0.0 0.0 0.0 0.0 0.0 0.0 0.0 0.0 0.0 0.0 0.0 0.0 0.0 0.0 0.0 0.0 0.0 0.0 0.0 0.0 0.0 0.0 0.0 0.0 0.0 0.0 0.0 0.0 0.0 0.0 0.0 0.0 0.0 0.0 0.0 0.0 0.7648542080601104 -0.0025391083045030235 0.0 1.2140188747314553 0.12424290501173145 0.0 1.2302424866537471 -0.11845635212557522 0.0 0.0 0.0 0.0 1.3019086346671858 -0.07601259440849827 0.0 1.3153213859194497 0.09058348507318334 0.0 0.0 0.0 0.0 0.0 0.0 0.0 1.0 0.0 0.0 0.0 0.0 0.0 0.0 0.0 0.0 0.0 0.0 0.0 0.84703696789283 -0.22921551099092574 0.0 1.1544605670687653 -0.30191734781222357 0.0 0.868114377594888 0.2244021071494707 0.0 1.1691229145075428 0.3085881813150646 0.0 0.4321124307111712 -0.005632231538898836 0.0 0.16617232620978448 0.02732620446343323 0.0 0.171233414916187 -0.02329153059918913 0.0 -0.04679301980685038 -0.06408679944102771 0.0 -0.0495303123349106 0.06415155157945174 0.0 0.3381902362154967 -0.2833365056363582 0.0 0.873608467042607 -0.672886569312958 0.0 0.6512239373708231 -0.6947196676193418 0.0 1.243512994581688 -0.6029260734495115 0.0 0.30294907507815694 0.0029025733766391794 0.0 0.3339048860636703 0.2686422478304091 0.0 0.6526595085296828 0.6720958149428463 0.0 1.2211689633652054 0.6031827411486761 0.0 0.29135167010581414 0.0007185641177266969 0.0 1.283206546551118 0.19286819131858 0.0 -0.020260372308523063 0.05452708535893805 0.0 1.2726636666414586 -0.17574790566684823 0.0 -0.01722476435098421 -0.05318592596438948 0.0 -0.03603468523858073 -0.025998905860693578 0.0 1.2245101675238848 -0.3986342450185558 0.0 1.1286309121674571 -0.7308432522997083 0.0 0.8711280205890828 0.7774812962271233 0.0 1.2318749706896155 0.39886164318006234 0.0 0.9103898252445937 0.1646417771402916 0.0 -0.037808765598662884 0.06924802081376527 0.0 0.9173301307413907 -0.1605584393283211 0.0 -0.03828808287117246 -0.06855520374170998 0.0 -0.030722924042265783 0.02228288375703312 0.0 1.0608958753244124 0.728045467365834 0.0 0.44795328490415465 0.5315899445257875 0.0 0.5378720946786825 0.031902652254964955 0.0 0.07575226099994116 0.04910887586607291 0.0 0.5451116121748188 -0.030802837681710434 0.0 0.08164334602705185 -0.05058511436050532 0.0 -0.11099089492692965 0.005550476111506675 0.0 0.969272907285993 0.29784335503615805 0.0 1.25291044888191 0.2454722076860989 0.0 1.2964725353087867 0.20338099132489743 0.0 1.2256811885527552 -0.24401737552671754 0.0 1.2923312907779794 -0.196993479038211 0.0 1.3052290017311758 0.2538533379327579 0.0 1.307246297012829 -0.24657502607917126 0.0 0.4498602047653997 -0.5508537352702507 0.0 0.8058908538847399 -0.1393480677547374 0.0 0.6792412301420749 -0.41978299882347336 0.0 0.8914107615131592 0.5913480413347847 0.0 0.8032279224288799 0.14012999403994789 0.0 0.6844509573745121 0.41786274220202385 0.0 1.2786295288259548 -0.046850579605403224 0.0 0.1928431288471059 0.03351685157690695 0.0 0.20754863777661275 -0.02755818102949372 0.0 -0.08461233942214698 -0.03656841710611787 0.0 1.3026786745303955 0.4277866500941931 0.0 0.8784408541044184 0.06738500152228388 0.0 1.2973309567340998 -0.4336344761094479 0.0 0.8942447829248347 -0.06061341644430888 0.0 1.3332289403024293 0.35958690965220125 0.0 1.270804564063265 0.3453856826020744 0.0 1.3280285851352707 -0.35768606213160753 0.0 1.2610915158612033 -0.3269171790953715 0.0 0.5884207862276291 -0.16194571043828346 0.0 0.8032455371589652 -0.329815633276501 0.0 1.0316244129762964 0.5961207812605038 0.0 0.5963818391452622 0.14891061079495452 0.0 0.8191109183369676 0.32723814289721503 0.0 0.8764976558544946 0.035490071697086276 0.0 0.9016075588365299 -0.026851435296975458 0.0 -0.03819689619184059 -0.05990596475086505 0.0 1.3098039101969574 0.13405799491259512 0.0 0.9340275583506578 -0.30526769670823034 0.0 1.291830983336482 -0.11962502968954822 0.0 0.41115932219645207 0.027236025286184497 0.0 0.4371121805115741 -0.018598971349878698 0.0 -0.12523142976485432 -0.030053393594381042 0.0 1.062638435490664 0.32277946038733885 0.0 0.9527206716381562 0.3795993580734867 0.0 1.0306899847798041 0.07033444004978825 0.0 0.922118050623449 -0.04856391797109023 0.0 1.275022375076617 0.05412706126264102 0.0 1.033222929307047 -0.3179348831142361 0.0 1.0981390730425251 -0.5580215697076941 0.0 0.9401703778995248 -0.37965821043756715 0.0 1.0120242496027603 -0.4247105202106889 0.0 0.9473071961614286 -0.5379141911628033 0.0 0.8744248545931896 -0.4015364613623068 0.0 1.3107547569802174 0.15636060229772927 0.0 1.3014205389043618 -0.1471819770780597 0.0 0.8561670092538635 -0.2302702613890197 0.0 0.885035502640997 -0.30270530353503783 0.0 0.8587306089682072 -0.2945493756867219 0.0 0.8534947773207553 -0.24547992173561903 0.0 0.8574785226782788 -0.2447333316714513 0.0 0.9020661181368071 -0.308780610366347 0.0 1.316327313273567 0.22736805554903863 0.0 1.1744565595369718 -0.04099406076206794 0.0 1.3276788046116663 0.2880689496560234 0.0 1.3067472668432554 -0.21012986867596686 0.0 0.0 0.0 0.0 0.0 0.0 0.0 1.3101207363574718 -0.27700225468680195 0.0 0.7197870422160586 -0.26762984720389754 0.0 0.8245221869335682 -0.2093816254702709 0.0 0.8737014318724368 -0.10977906696976494 0.0 0.8655379698043282 -0.16186977826775842 0.0 0.9375 0.0 0.0 0.7500000000000001 0.0 0.0 0.7276653431332595 0.26290699982697435 0.0 0.8282573547077278 0.1965822652425881 0.0 0.7499999999999999 0.0 0.0 0.8726295405700334 0.12482605560087703 0.0 0.9301750722015371 0.04108002627011692 0.0 0.8509545567200831 0.043328439997352246 0.0 -0.09427715286963352 -0.04243753775287886 0.0 0.009949588734132068 -0.04163715993143404 0.0 1.1385451396757198 0.5373749817120097 0.0 1.033234343304243 0.45866226681658273 0.0 0.8839971257089908 0.23801200915940995 0.0 1.2517993750069367 0.08501867196415515 0.0 1.3022433944430627 0.014117115965593391 0.0 0.2906057147945686 0.01930995597563627 0.0 1.3160556738687734 0.04935450851929243 0.0 0.8234753085450571 0.01425471356605243 0.0 1.2322391398532073 0.05399583108970428 0.0 0.5895890489017188 -0.013166012812477437 0.0 0.5540688976486934 0.002053516874655518 0.0 -0.0007336358844977494 0.027540635404300157 0.0 1.0775563225434617 -0.0006430803076995092 0.0 0.23533605281443987 0.012614548630218768 0.0 0.14661181656476857 0.0029297961769984364 0.0 0.2674152662093585 0.0028697036491662628 0.0 0.7941828530500864 -0.04017980070321716 0.0 0.5858881636632763 -0.02262358053048326 0.0 1.2964914155146716 -0.020539734257599872 0.0 0.6074414689145018 0.02926066498665563 0.0 1.2614254486062362 -0.08545769973414782 0.0 0.08802938693757664 -0.04384447024971345 0.0 1.1516860761631105 0.11494001612615087 0.0 0.8854046460619104 0.1744897530238855 0.0 0.6959740112736169 -0.15608292377574334 0.0 1.0458652206589085 -0.05766945975782957 0.0 1.0177950493763142 -0.18418580998047734 0.0 0.8664582907235603 -0.1790942694973952 0.0 0.8778879687702615 -0.0261633224909203 0.0 0.43129884494410464 -0.015790708312673676 0.0 0.23937166240700744 -0.021615186009421465 0.0 1.292810320438911 0.0011868059690028458 0.0 0.18903604411377523 -0.01110310419489881 0.0 1.3035229794277416 -0.03608498458872486 0.0 0.14108268372097088 -0.023681151383467994 0.0 0.6080836996050392 0.012061282216095376 0.0 -0.07369406814795934 -0.02809192925600804 0.0 0.6405233832055707 0.00028701687406356807 0.0 0.8845233288334575 0.29005946398746413 0.0 0.8880707538833696 0.4039217521545644 0.0 0.8866541768716232 0.2567878095796872 0.0 0.9141155992351577 0.10681236806105368 0.0 0.8672662274979168 0.21454467188812035 0.0 0.9093591009938501 0.29322781472983245 0.0 0.8584632626598331 0.22290218870415718 0.0 0.8016501260539773 0.17332121464736785 0.0 0.8683345432462218 0.1557714189186475 0.0 0.0 0.0 0.0 0.8423424609073052 0.16948621941837827 0.0 0.8738500191722658 0.1671192744494434 0.0 1.1193569537097101 0.012904127324075759 0.0 1.2697304362548512 0.021910375792189945 0.0 1.0158457397248621 -0.021608686421453548 0.0 0.7276897627142137 -0.065967871918892 0.0 1.2144144542387902 0.0889118778152967 0.0 0.716107854106401 -0.1645955916248205 0.0 1.1242229629405172 -0.11093419774234982 0.0 1.1005987569910944 0.012303106796791639 0.0 1.2876024772676278 0.030441557937922793 0.0 0.6872667045033339 0.0303516643439481 0.0 1.2507056810750115 0.02075723579071003 0.0 1.0918437441514957 0.044510489775134894 0.0 -0.06619882833624789 -0.008687225610023087 0.0 -0.19395278820694864 0.003807891769414917 0.0 0.9505261760908825 0.3263223624383596 0.0 1.0106540111557607 -0.056309703497652866 0.0 0.5173418373742501 -0.038631911290447525 0.0 0.0 0.0 0.0 1.2219884121420055 -0.004339208865382226 0.0 1.2546723372866246 -0.014045313206277747 0.0 1.2343728096296704 0.05948499862434737 0.0 1.1051641899141924 -0.07316901520560297 0.0 0.45532449255613594 0.006312848124616426 0.0 1.249824948553193 0.04816233695284738 0.0 1.2488923718216112 0.0965165905282551 0.0 -0.012426148341497464 -0.016431696128596372 0.0 -0.16898966654104677 -0.0161827558655049 0.0 -0.15801995745228153 -0.017845748180659083 0.0 -0.15558623908123964 0.012405348957874656 0.0 1.1525758118661564 0.16494559505349377 0.0 0.7732393217681308 0.18314235129382117 0.0 0.7777518861958842 0.1466335355514351 0.0 0.7859399638245115 0.10238298553935228 0.0 0.6179999882057214 0.1040482979339611 0.0 0.40741275263298365 -0.021521935586030112 0.0 0.07070641324132636 -0.004652668432041822 0.0 0.4625780580878379 -0.05756438654152442 0.0 0.9911573898663357 0.04242504561347878 0.0 0.0 0.0 0.0 0.6175823843017642 0.04098045433619282 0.0 1.0489368394757517 0.06710536821614681 0.0 -0.22434605276443362 0.0005495450599621617 0.0 1.0802978429590637 0.22102380511808503 0.0 0.9013848481762569 0.10862570092757848 0.0 1.259118452642539 -0.09053250824332568 0.0 0.19128710680831776 0.005815288930256031 0.0 0.44061741269187504 0.04904649765217934 0.0 0.14725352354349955 0.012620976937418581 0.0 1.2655552018982514 0.0780355298957797 0.0 -0.2153347239617636 -0.003540447819723637 0.0 -0.17374952372182065 -0.012565945431252579 0.0 -0.2044402317029888 -0.006955793931111814 0.0 -0.129594037559471 0.012699824021182493 0.0 -0.19770457526986293 -0.002346453232699611 0.0 -0.23368289562545166 -0.0007689853674403894 0.0 -0.14577650022819574 0.0037415347972285062 0.0 -0.11905087938444717 6.29413667854023e-05 0.0 -0.23568235460185916 -0.0025124988849746506 0.0 0.0633047390300459 -0.01732361931300492 0.0 -0.11972348820592815 0.006812896620813463 0.0 -0.23068615094672787 -0.0035366093786351697 0.0 -0.2357602417245133 -0.0029171180909302215 0.0 -0.07445245143741946 -0.015621543632520196 0.0 0.0 0.0 0.0 0.9377072496566836 0.22868582147457558 0.0 0.9517341596235162 0.038629512127638946 0.0 0.2606668399010079 -0.025993716236886528 0.0 0.337364806170353 0.009906488486572995 0.0 0.6589656692624808 0.05647110254754636 0.0 1.0344788328184902 0.08710458442684188 0.0 1.227205715570092 0.07345367422275571 0.0 1.2481426605881691 -0.026512791081782897 0.0 0.0832874073427229 0.017313254438691236 0.0 -0.10009129763906989 -0.00900393215736767 0.0 0.021435974548446077 -0.03600823902389443 0.0 0.15826603294911973 -0.03268699345022146 0.0 0.15903103717380415 -0.04286628746848854 0.0 0.40845265272473474 -0.06158329991018012 0.0 0.7279065157105808 -0.10445717218312743 0.0 0.9986541246514539 -0.1016199037887475 0.0 0.48231820835295786 -0.07643283992808927 0.0 0.6949104665073526 -0.08215471751766262 0.0 0.8022319429043433 -0.09900538474662965 0.0 0.9155265952517786 -0.08706500920534602 0.0 0.35391430220788184 -0.07036918664139272 0.0 1.245047285373683 -0.10618653516647493 0.0 1.1485499408114261 -0.09747376908821817 0.0 1.271161710607727 -0.06927673962827852 0.0 1.144932961010378 -0.0831684262390357 0.0 -0.07056188444100278 -0.026763038882932962 0.0 1.1230310247447939 -0.11577744612582265 0.0 1.1537047696756964 -0.07042917163939352 0.0 1.104507175129981 -0.10119078453779978 0.0 -0.17121047422845942 -0.0054399406061881005 0.0 0.6043449135893507 -0.09777157394894845 0.0 1.1648755411565892 -0.13291307029146548 0.0 0.18906139010295578 -0.05717082388644094 0.0 -0.21275610279669172 -0.0009156295575650478 0.0 1.2145263339181838 -0.1268319681241768 0.0 0.11058112682827888 -0.05210083243679939 0.0 -0.18706101073404077 -0.007377318524603736 0.0 -0.04308398819139545 0.0327818044616702 0.0 0.073788393633016 -0.04673169390357127 0.0 -0.0945509042921378 -0.021821000686841018 0.0 0.5662133326233212 -0.10136472220702639 0.0 -0.05188663416961403 -0.027210136410177745 0.0 0.21187304123754644 0.06338966339418736 0.0 -0.12467422694883779 0.01951166840510639 0.0 -0.08140076204723455 -0.014805036159195827 0.0 -0.13793638811049996 0.0035438088831783216 0.0 0.06707871725471623 0.04839282800773226 0.0 1.0691573595441692 0.09924342324017735 0.0 0.44682323527833934 0.08708402896044745 0.0 0.4423070093056493 -0.0912672110679552 0.0 0.31296622437980154 -0.03807411558869083 0.0 0.8472151319975307 -0.0608166171203674 0.0 0.35859584465907945 0.027663919713668366 0.0 1.2121422969908024 0.0956464943215829 0.0 1.0146163353405582 0.11181639335128206 0.0 1.0438339752562502 -0.13575860727717162 0.0 -0.12237805271707111 -0.0014064244397454253 0.0 -0.12017058047537943 -0.016329237104448658 0.0 -0.21648936154213116 -0.005177623634051583 0.0 -0.09422608379696573 0.019686625565487437 0.0 -0.14469676780199084 -0.015680267967213113 0.0 0.44940922838169023 -0.0867086966675087 0.0 1.1981975674605838 -0.12966414604701176 0.0 0.7855220337602902 -0.11779394663628051 0.0 1.0158753023875708 -0.13843479195863118 0.0 -0.019537806205108473 0.03513419054170346 0.0 0.12047522924481403 -0.05257147680851053 0.0 0.041243667757512974 -0.0314889668590044 0.0 0.3320852376320253 -0.07749813112946786 0.0 0.016290308849189614 -0.03271109255355667 0.0 1.1414572188917729 0.13172608569381697 0.0 -0.05472217710416025 -0.0011067608386203648 0.0 0.045064543849262284 0.02305184091592772 0.0 -0.019322809678771907 0.0013225804449171668 0.0 0.14723213573165234 -0.040757280471045806 0.0 0.43175265881551117 0.06353700322577864 0.0 0.8460484306458842 -0.12626229196062688 0.0 0.6689906961074841 -0.11369382751524075 0.0 0.9343859599626754 -0.12366584108034959 0.0 0.38449727201688927 -0.08398000389607461 0.0 0.9553438616314004 -0.13637731732195887 0.0 1.1797485955722908 -0.13552124484289566 0.0 1.1375941850852604 -0.13297570823408925 0.0 1.126163355095507 -0.1253788513045245 0.0 0.7581399354381141 -0.12227757721542237 0.0 0.6722470207558242 -0.11356429331118861 0.0 0.5579865398817239 -0.09778364523931994 0.0 0.5266247755031609 -0.09745028314433067 0.0 0.25574099029380154 -0.06532256874560534 0.0 0.9280551121885456 -0.13098446665972857 0.0 0.32241115055965763 0.044455248704672976 0.0 0.742175712866791 0.08268278671398219 0.0 0.06389371218165549 0.025669905557605732 0.0 0.22406879426703954 0.05145203116688574 0.0 -0.14353526754155552 0.00955730012233249 0.0 1.2288789517433016 0.013750916468733894 0.0 1.0795371157971039 0.06621498236934124 0.0 1.2466095376808857 -0.05062525497016119 0.0 1.1836803484503409 -0.09622784621398606 0.0 0.2952134224968006 -0.06687867059937529 0.0 0.5267257637742743 -0.0874977281410523 0.0 0.7016708858401712 0.0990833099024905 0.0 0.11695109575024064 0.04672673018073927 0.0 1.1956858187524855 0.037021032480109864 0.0 1.234729820383277 -0.07033961626732717 0.0 0.6870098972746996 0.11738013040471056 0.0 1.187424306590267 -0.10896941796875853 0.0 0.7286512591640907 0.09316733740013171 0.0 1.2327004877883576 0.11349676790987083 0.0 0.44359858690333126 0.08054833465594845 0.0 0.8537204640224383 0.12164018298312411 0.0 1.2177412373159933 0.05829354247420383 0.0 1.098354905530872 -0.053418546555757916 0.0 1.1703654367224674 -0.11581332001542041 0.0 0.9604740912929155 0.11529138450226149 0.0 1.1229140536560391 0.13115273222576243 0.0 1.16502963119831 0.1212399794741111 0.0 1.1790574988405076 0.13571293398859438 0.0 1.1482404843759386 0.14492866621162703 0.0 1.072958496176123 0.13626681065356655 0.0 0.8234675121081839 0.12674574589784712 0.0 1.099876935856775 -0.11164282837163525 0.0 0.0 0.0 0.0 1.165871337348347 0.08967279449010886 0.0 1.024662707465275 0.14377771431422037 0.0 0.45315478935177067 0.0932461005628412 0.0 1.1740231339738914 0.10592426742744204 0.0 1.0151524836633048 0.14186495789304823 0.0 1.1972724365525784 0.13100776078854942 0.0 0.7576699864565397 0.12491090529252402 0.0 1.1591818322404197 0.1349225207999165 0.0 0.7145169957618923 0.12252862048837493 0.0 0.3783546899308409 0.08808184051234728 0.0 1.1456983308535098 0.14516034360879607 0.0 0.8197601793215064 0.13212598374947657 0.0 1.1056462220117496 0.1446936747978806 0.0 0.9699659717002515 0.14266991353454178 0.0 0.9153599790865778 0.1372007004406499 0.0 1.1899831918339618 0.13575435615243256 0.0 1.1484082778946307 0.1415821947725882 0.0 1.1538462072928457 0.11556017506209411 0.0 0.2399368259825964 0.0704705016956536 0.0 0.9292208072831989 0.08999045972190255 0.0 1.1520028462901202 0.13931933325449583 0.0 1.132030137723702 0.14082616456131872 0.0 1.1031960139789332 0.11885024834704902 0.0 1.1210506767381898 0.12661078042362134 0.0 1.1276719820468881 0.11764797725259242 0.0 0.9926970830865041 0.08594063116657029 0.0 1.0236919168642096 0.13421909723502085 0.0 1.0225106156904753 0.10417726229983192 0.0 1.1083119121364597 0.11685632231048002 0.0 0.8157338510222245 0.0722000641896162 0.0 1.115373398377216 0.13119826568963033 0.0 1.0808492107723793 0.12573241788150297 0.0 1.089021613283828 0.13935351182930614 0.0 1.0283717654068802 0.10322035425158078 0.0 0.0 0.0 0.0 0.6487214113827281 -0.006986971376578184 0.0 1.0912905853459995 0.40959112751067583 0.0 1.183387300476761 0.38616072554809416 0.0 1.0979422301468462 -0.40271907154300757 0.0 0.8594748433738442 -0.20705968051054696 0.0 0.9710693849696374 -0.22495509899132282 0.0 0.8937046858896686 -0.08341476227041812 0.0 1.258377537632356 -0.01351369156291045 0.0 1.1640550995627619 -0.026707324430509792 0.0 1.248548225538457 -0.05647687758768521 0.0 1.1782959077062363 -0.03790074134156415 0.0 1.219900790238665 -0.01167382315594512 0.0 -0.142804642555596 -0.009426420737724057 0.0 -0.13400726813509373 0.022548862430896682 0.0 -0.07373778454259416 0.020146564847884057 0.0 -0.07789107869870898 0.03809436766139722 0.0 0.0664566293159584 0.03543582450027638 0.0 -0.11604930061492888 0.029534578722296707 0.0 -0.03894993241889791 0.057207916461263324 0.0 0.08961163614790452 0.04438656625638013 0.0 -0.03322880215730757 0.06980991675886378 0.0 -0.08182752740055144 0.046430210351251326 0.0 0.9881860452445431 0.11864617361392801 0.0 -0.12417192731643314 0.01941305452819735 0.0 1.1813759167506337 -0.13235372716866015 0.0 1.1583174023670604 -0.14059847765098132 0.0 1.051717834627485 -0.14028298593290311 0.0 1.1300841988667298 -0.14050142875205054 0.0 1.133721684723293 -0.11983518157757675 0.0 1.0204057790248624 -0.13788215032776832 0.0 1.1488469282246347 -0.12551832686937897 0.0 1.1078815622260632 -0.13503310197545848 0.0 1.1353942395282892 -0.1381043160509562 0.0 0.9800113201085209 -0.12513617018863496 0.0 1.011285608528484 -0.13190036013062617 0.0 0.7952570699236751 -0.11680922570132952 0.0 1.1106529036558435 -0.1303305441468796 0.0 1.1183208118030317 -0.11098249967083834 0.0 1.0893425666316445 -0.12177294067325345 0.0 0.9492825101712655 -0.08820007494537191 0.0 1.128419691891425 -0.11937771877943436 0.0 0.8418191573525698 -0.10883341369951947 0.0 1.1084941178222 -0.11286783779277135 0.0 1.020848590342721 -0.11598439177430553 0.0 0.8028996061229432 -0.09376713823662994 0.0 0.950320773280911 -0.09153342873257474 0.0 0.8806786769227952 -0.10500638792906829 0.0 0.41828346987823983 -0.06426671774223612 0.0 0.9800186100611751 -0.10475324873925726 0.0 0.6575230503437816 -0.0871950530