<?xml version="1.0"?>
<VTKFile type="UnstructuredGrid"  version="0.1"  >
<UnstructuredGrid>
<Piece  NumberOfPoints="1289" NumberOfCells="2413">
<Points>
<DataArray  type="Float64"  NumberOfComponents="3"  format="ascii">0 0 0  0 0.41 0  2.2 0.41 0  2.2 0 0  0.1 0.1 0  0.1 0.3 0  0.8 0.3 0  0.8 0.1 0  0.25 0.2 0  0.248976 0.210065 0  0.245948 0.219718 0  0.241038 0.228563 0  0.234448 0.23624 0  0.226448 0.242432 0  0.217365 0.246888 0  0.207571 0.249423 0  0.197468 0.249936 0  0.187467 0.248404 0  0.17798 0.24489 0  0.169395 0.239539 0  0.162062 0.232569 0  0.156283 0.224265 0  0.152293 0.214968 0  0.150257 0.205058 0  0.150257 0.194942 0  0.152293 0.185032 0  0.156283 0.175735 0  0.162062 0.167431 0  0.169395 0.160461 0  0.17798 0.15511 0  0.187467 0.151596 0  0.197468 0.150064 0  0.207571 0.150577 0  0.217365 0.153112 0  0.226448 0.157568 0  0.234448 0.16376 0  0.241038 0.171437 0  0.245948 0.180282 0  0.248976 0.189935 0  1.1 0 0  1.1 0.41 0  0.1 0.2 0  0.45 0.1 0  0.45 0.3 0  0.55 0 0  0.275 0.1 0  0.275 0.3 0  0.275 0 0  0.55 0.41 0  0 0.205 0  0.825 0 0  0.825 0.41 0  0.275 0.41 0  0.1 0.15 0  0.1875 0.1 0  0.1 0.25 0  0.1875 0.3 0  0.132322 0.2 0  0.241426 0.253518 0  0.241426 0.146482 0  0.264574 0.17974 0  0.264574 0.22026 0  0.138434 0.187348 0  0.153372 0.150948 0  0.148413 0.164094 0  0.176495 0.136535 0  0.22768 0.143571 0  0.138434 0.212652 0  0.148413 0.235906 0  0.176495 0.263465 0  0.22768 0.256429 0  0.23125 0.3 0  0.24769 0.24094 0  0.23125 0.1 0  0.24769 0.15906 0  0.26253 0.193641 0  0.190482 0.137872 0  0.166753 0.146661 0  0.157737 0.244461 0  0.190482 0.262128 0  0.203107 0.261264 0  0.253635 0.22977 0  0.203107 0.138736 0  0.253635 0.17023 0  0.261028 0.206206 0  0.167707 0.251809 0  0.143629 0.224191 0  0.215302 0.2591 0  0.270465 0.245894 0  0.215302 0.1409 0  0.270465 0.154106 0  0.284052 0.202587 0  0.14375 0.3 0  0.209375 0.3 0  0.225966 0.278501 0  0.209375 0.1 0  0.225966 0.121499 0  0.211613 0.273759 0  0.211613 0.126241 0  0.143629 0.175809 0  0.1 0.175 0  0.133484 0.164832 0  0.144491 0.249539 0  0.1 0.225 0  0.133484 0.235168 0  0.3625 0.3 0  0.25691 0.253381 0  0.25691 0.146619 0  0.277205 0.188698 0  0.184724 0.275712 0  0.237372 0.268285 0  0.184724 0.124288 0  0.237372 0.131715 0  0.197578 0.273149 0  0.193656 0.286994 0  0.197578 0.126851 0  0.193656 0.113006 0  0.122953 0.187671 0  0.118362 0.153758 0  0.155372 0.258107 0  0.122953 0.212329 0  0.118362 0.246242 0  0.276394 0.27264 0  0.276394 0.12736 0  0.280965 0.170013 0  0.253125 0.3 0  0.14375 0.1 0  0.253125 0.1 0  0.269489 0.26014 0  0.269489 0.13986 0  0.303639 0.184297 0  0.165625 0.3 0  0.134742 0.273113 0  0.257831 0.274737 0  0.255279 0.128499 0  0.3625 0.1 0  0.165625 0.1 0  0.162031 0.132368 0  0.134955 0.126405 0  0.149334 0.125568 0  0.142936 0.139597 0  0.12695 0.140259 0  0.242514 0.285501 0  0.242514 0.114499 0  0.1 0.125 0  0.117483 0.12555 0  0.11154 0.139776 0  0.121875 0.1 0  0.109143 0.1125 0  0.126805 0.114 0  0.220313 0.29129 0  0.351562 0.287369 0  0.207222 0.2866 0  0.220312 0.10871 0  0.1375 0 0  0.20625 0 0  0.207222 0.1134 0  0.11722 0.17118 0  0.1 0.1625 0  0.0778409 0.16875 0  0.0862762 0.15625 0  0 0.15375 0  0 0.1025 0  0.11722 0.22882 0  0.1 0.2375 0  0 0.3075 0  0.0862762 0.23125 0  0.0598995 0.222547 0  0.0860223 0.2125 0  0.289584 0.181469 0  0.300267 0.16446 0  0.163832 0.269071 0  0.149597 0.273325 0  0.1 0.275 0  0.268498 0.285953 0  0.31875 0.3 0  0.294154 0.254672 0  0.296875 0.3 0  0.293558 0.271845 0  0.285095 0.286799 0  0.324298 0.264316 0  0.307866 0.263745 0  0.317093 0.234901 0  0.315485 0.281219 0  0.316547 0.250625 0  0.344693 0.243731 0  0.331592 0.251147 0  0.35129 0.270663 0  0.338689 0.263683 0  0.340625 0.3 0  0.249849 0.264383 0  0.265097 0.11422 0  0.284688 0.156136 0  0.242188 0.324017 0  0.0856613 0.2625 0  0.132812 0.0612217 0  0.264062 0.0612217 0  0.198437 0.07598340000000001 0  0.0860223 0.1375 0  0.0794526 0.191089 0  0.285228 0.140397 0  0.298655 0.148737 0  0.31875 0.1 0  0.327335 0.15374 0  0.296875 0.1 0  0.312289 0.155283 0  0.313348 0.135607 0  0.321802 0.173916 0  0.298433 0.134116 0  0.112124 0.2625 0  0.127526 0.259083 0  0.121875 0.3 0  0.0682687 0.241503 0  0.1 0.2875 0  0.117762 0.28125 0  0.107813 0.3 0  0.103906 0.313849 0  0.0778409 0.28125 0  0.1375 0.41 0  0.0862762 0.29375 0  0.08886860000000001 0.24375 0  0.307812 0.338778 0  0.307812 0.292227 0  0.33216 0.279164 0  0.387888 0.266414 0  0.264063 0.31948 0  0.110937 0.07598340000000001 0  0.242188 0.07598340000000001 0  0.319914 0.11839 0  0.340625 0.1 0  0.334448 0.133793 0  0.329687 0.108539 0  0.346259 0.118491 0  0.360334 0.173636 0  0.327539 0.205033 0  0.132812 0.288712 0  0.362436 0.278836 0  0.368105 0.259418 0  0.4125 0.41 0  0.329687 0.324017 0  0.329687 0.292306 0  0.285938 0.318952 0  0.417187 0.338778 0  0.324481 0.14148 0  0.351562 0.106771 0  0.40625 0.1 0  0.341028 0.168342 0  0.319221 0.190479 0  0.335292 0.184501 0  0.305563 0.20794 0  0.220313 0.31948 0  0.132812 0.332772 0  0.0865876 0.311259 0  0.0598995 0.302453 0  0.0906541 0.343255 0  0.353543 0.255837 0  0.36574 0.237633 0  0.405007 0.254279 0  0.275795 0.352123 0  0.4125 0 0  0.35493 0.137394 0  0.366563 0.120618 0  0.35917 0.205246 0  0.198438 0.318952 0  0.0626109 0.263892 0  0.40625 0.3 0  0.354809 0.155936 0  0.386512 0.146872 0  0.373101 0.159939 0  0.384375 0.1 0  0.343394 0.19929 0  0.350682 0.185683 0  0.368101 0.189748 0  0.344016 0.221511 0  0.391108 0.213329 0  0.376279 0.204783 0  0.398843 0.182768 0  0.375804 0.222746 0  0.390665 0.196958 0  0.394004 0.23518 0  0.359883 0.222828 0  0.419908 0.204359 0  0.404243 0.204783 0  0.412615 0.224526 0  0.20625 0.41 0  0.165625 0.325257 0  0.0347982 0.244954 0  0.379558 0.247154 0  0.34165 0.147603 0  0.372264 0.136992 0  0.388988 0.121989 0  0.373437 0.108554 0  0.351562 0.31948 0  0.391367 0.16527 0  0.399572 0.223324 0  0.452011 0.227371 0  0.40877 0.239392 0  0.431491 0.237337 0  0.421224 0.250459 0  0.449619 0.262098 0  0.418865 0.276779 0  0.437063 0.252274 0  0.415673 0.263227 0  0.430988 0.266772 0  0.402767 0.273419 0  0.452967 0.244883 0  0.428125 0.3 0  0.408502 0.286186 0  0.384375 0.3 0  0.392267 0.285807 0  0.465927 0.219339 0  0.43489 0.283846 0  0.376424 0.286289 0  0.625 0.3 0  0.473533 0.205186 0  0.461713 0.255517 0  0.5375 0.3 0  0.465725 0.235405 0  0.44631 0.201425 0  0.471875 0.3 0  0.494307 0.227729 0  0.459448 0.206736 0  0.462294 0.180792 0  0.478933 0.227536 0  0.486793 0.21381 0  0.486322 0.251373 0  0.50065 0.215318 0  0.54005 0.175389 0  0.474633 0.189893 0  0.512916 0.208697 0  0.49531 0.199967 0  0.475889 0.175275 0  0.625 0.1 0  0.459311 0.153933 0  0.513645 0.242704 0  0.392892 0.248539 0  0.374815 0.271913 0  0.365974 0.14871 0  0.395312 0.109184 0  0.417061 0.123981 0  0.483196 0.277003 0  0.381967 0.179632 0  0.429898 0.219374 0  0.433473 0.206165 0  0.43149 0.181038 0  0.444208 0.215487 0  0.472985 0.247309 0  0.49375 0.3 0  0.475579 0.262714 0  0.49916 0.274293 0  0.501175 0.184809 0  0.514164 0.225681 0  0.543648 0.214977 0  0.5341630000000001 0.23481 0  0.527396 0.216171 0  0.5375 0.1 0  0.534548 0.202315 0  0.561545 0.192513 0  0.5494289999999999 0.201221 0  0.570923 0.218346 0  0.412582 0.149833 0  0.489327 0.264745 0  0.502439 0.254775 0  0.462391 0.271166 0  0.496775 0.241732 0  0.5294410000000001 0.268606 0  0.482812 0.291099 0  0.46879 0.285038 0  0.452663 0.284065 0  0.51789 0.257882 0  0.53408 0.252026 0  0.560142 0.243543 0  0.545708 0.243474 0  0.547532 0.229019 0  0.55282 0.265323 0  0.398971 0.153424 0  0.400349 0.135684 0  0.410135 0.168145 0  0.428823 0.161323 0  0.415266 0.183779 0  0.329687 0.0810483 0  0.395312 0.0612217 0  0.373437 0.318952 0  0.439062 0.324017 0  0.561816 0.229354 0  0.585029 0.239287 0  0.431827 0.139854 0  0.446796 0.168929 0  0.351562 0.07598340000000001 0  0.395313 0.318944 0  0.54337 0.150762 0  0.460937 0.31948 0  0.418412 0.137529 0  0.428125 0.1 0  0.442783 0.152332 0  0.450742 0.134294 0  0.373437 0.0805201 0  0.384383 0.342558 0  0.482812 0.318952 0  0.429239 0.127457 0  0.444274 0.117405 0  0.426548 0.113815 0  0.49375 0.1 0  0.488954 0.113984 0  0.457973 0.121842 0  0.471621 0.137346 0  0.515625 0.325257 0  0.48125 0.41 0  0.417187 0.07598340000000001 0  0.496363 0.126778 0  0.479043 0.155715 0  0.439062 0.0805201 0  0.481795 0.126919 0  0.471875 0.1 0  0.489227 0.142159 0  0.515625 0.1 0  0.520062 0.147117 0  0.501244 0.161791 0  0.505431 0.112984 0  0.505344 0.14029 0  0.526563 0.119081 0  0.5181750000000001 0.131908 0  0.539868 0.136937 0  0.460937 0.108383 0  0.474242 0.114415 0  0.460937 0.0810483 0  0.487841 0.167168 0  0.526563 0.0612217 0  0.526563 0.106406 0  0.537619 0.112743 0  0.58125 0.1 0  0.559375 0.1 0  0.482812 0.08105569999999999 0  0.471883 0.0587655 0  0.570312 0.129396 0  0.548437 0.07598340000000001 0  0.504687 0.08105569999999999 0  0.49375 0.0470127 0  0.570312 0.112663 0  0.592798 0.12103 0  0.553986 0.12103 0  0.570312 0.0805201 0  0.48125 0 0  0.114787 0.2 0  0.160769 0.284765 0  0.175816 0.288361 0  0.162602 0.116048 0  0.154687 0.07598340000000001 0  0.176562 0.0805201 0  0.0598995 0.147547 0  0.307812 0.109924 0  0.291279 0.117157 0  0.278491 0.112989 0  0.285937 0.07598340000000001 0  0.307812 0.0805201 0  0.296928 0.196743 0  0.318141 0.218507 0  0.330208 0.227509 0  0.301397 0.225668 0  0.302706 0.241401 0  0.292574 0.21424 0  0.282762 0.230935 0  0.284351 0.244775 0  0.269553 0.23261 0  0.278572 0.217242 0  0.226924 0.342606 0  0.446928 0.185396 0  0.515625 0.3 0  0.504687 0.288879 0  0.515256 0.276534 0  0.529479 0.285328 0  0.58125 0.3 0  0.541969 0.272936 0  0.559375 0.3 0  0.556796 0.282529 0  0.543473 0.287206 0  0.581429 0.267774 0  0.566728 0.271171 0  0.570869 0.255585 0  0.577404 0.283865 0  0.603125 0.3 0  0.597531 0.28035 0  0.570312 0.338778 0  0.592188 0.292492 0  0.603513 0.256094 0  0.614063 0.286265 0  0.610329 0.27064 0  0.632708 0.251285 0  0.657223 0.261594 0  0.618789 0.257807 0  0.614188 0.22987 0  0.630935 0.265614 
[...]
<PointData  Vectors="v"> 
	<DataArray  type="Float64"  Name="v"  NumberOfComponents="3" format="ascii">
0.0 0.0 0.0 0.0 0.0 0.0 0.0 0.0 0.0 0.0 0.0 0.0 0.7974922200097748 -0.18903576768847824 0.0 0.8412206971941583 0.19843005136656572 0.0 1.025459283123967 -0.033059466754981344 0.0 0.967851065718569 0.02602778342228159 0.0 0.0 0.0 0.0 0.0 0.0 0.0 0.0 0.0 0.0 0.0 0.0 0.0 0.0 0.0 0.0 0.0 0.0 0.0 0.0 0.0 0.0 0.0 0.0 0.0 0.0 0.0 0.0 0.0 0.0 0.0 0.0 0.0 0.0 0.0 0.0 0.0 0.0 0.0 0.0 0.0 0.0 0.0 0.0 0.0 0.0 0.0 0.0 0.0 0.0 0.0 0.0 0.0 0.0 0.0 0.0 0.0 0.0 0.0 0.0 0.0 0.0 0.0 0.0 0.0 0.0 0.0 0.0 0.0 0.0 0.0 0.0 0.0 0.0 0.0 0.0 0.0 0.0 0.0 0.0 0.0 0.0 0.0 0.0 0.0 0.0 0.0 0.0 0.0 0.0 0.0 0.0 0.0 0.0 0.0 0.0 0.0 0.0 0.0 0.0 0.7648487955731739 -0.002771460765073304 0.0 1.2125003858509722 0.12239466209256024 0.0 1.2317247802472997 -0.12082002884541557 0.0 0.0 0.0 0.0 1.3018931660968793 -0.07543640454840696 0.0 1.3152438840107132 0.09172144273752017 0.0 0.0 0.0 0.0 0.0 0.0 0.0 1.0 0.0 0.0 0.0 0.0 0.0 0.0 0.0 0.0 0.0 0.0 0.0 0.8471040372534535 -0.22941441940883292 0.0 1.1546485863033804 -0.30181733295797336 0.0 0.8680323715310204 0.22421719028927609 0.0 1.168897679622717 0.3088421169474055 0.0 0.43210462482757783 -0.005871048757325819 0.0 0.16544689763296877 0.02727177486966567 0.0 0.17168593717940211 -0.02333638179459271 0.0 -0.046867280285674995 -0.06470230477449071 0.0 -0.049341108545383996 0.06337495693254674 0.0 0.33823225324586365 -0.28358704242962646 0.0 0.8737662933498814 -0.6730387963355916 0.0 0.6513545684991052 -0.6949321550156884 0.0 1.2437629325557558 -0.6029673837207401 0.0 0.30348517443756173 0.0029956692168160463 0.0 0.33384896856436164 0.2683843291491357 0.0 0.652497175674901 0.6718701013440838 0.0 1.2208106896673163 0.6031717775271145 0.0 0.29045796090923487 0.0008691936510946944 0.0 1.2830635585212395 0.1935185742817245 0.0 -0.02032952877570848 0.05403168910795823 0.0 1.2727873788771575 -0.17542000354589435 0.0 -0.017157617304665407 -0.05358924325722742 0.0 -0.036064642324003554 -0.02684960089768245 0.0 1.2249711717790845 -0.39868194685633507 0.0 1.1288890805900966 -0.7309792497420343 0.0 0.8708749953302073 0.77726980037243 0.0 1.2311131124034667 0.39880269646491345 0.0 0.9093708660894243 0.1646554074344535 0.0 -0.0376272445267776 0.06844562617635358 0.0 0.9179289555718746 -0.1605508500851064 0.0 -0.038430099503507335 -0.06920368241785874 0.0 -0.030617407287251822 0.021341383512310803 0.0 1.0605463901230638 0.7278653622303997 0.0 0.4478275672616274 0.5313322157790693 0.0 0.5368380232370753 0.03200432638806913 0.0 0.0748774593955201 0.048830791315886336 0.0 0.5457218584169488 -0.030740525624401896 0.0 0.08225256296075373 -0.05078393926889857 0.0 -0.11084926328729115 0.00549327309834641 0.0 0.9691075317584261 0.29784880332519237 0.0 1.252691691792739 0.24593382693110785 0.0 1.2956704152875311 0.20385235917767977 0.0 1.225847416943195 -0.24379978137035035 0.0 1.2927639932156934 -0.19673386655700412 0.0 1.3044408670765069 0.25419641683348354 0.0 1.307695186994054 -0.24638698474539142 0.0 0.44996678507818183 -0.5511000692882131 0.0 0.8059277533934833 -0.13957874372993564 0.0 0.6793376187357933 -0.4200102821078763 0.0 0.8912037998943901 0.591173501052143 0.0 0.803176298370972 0.13990484226074726 0.0 0.6843219668789252 0.4176310105265985 0.0 1.2798638735031647 -0.04542381872717081 0.0 0.1916540930032075 0.03328432237761041 0.0 0.20835536895981546 -0.027725568421557843 0.0 -0.08457029470575425 -0.036847157827134616 0.0 1.3022810443882753 0.4279837321006689 0.0 0.876777200381856 0.06763132949400708 0.0 1.2975924306664688 -0.43356177173443883 0.0 0.8951558716991409 -0.060467042359315486 0.0 1.3326960773947285 0.35986888717239746 0.0 1.2704869637320166 0.34568465607278503 0.0 1.328353188134925 -0.3575444434617201 0.0 1.2613144075853238 -0.3267765132174354 0.0 0.5884595709422943 -0.1621970251601574 0.0 0.8033314248409301 -0.3300264783257521 0.0 1.0313552676761517 0.5960203481332091 0.0 0.5963272165661326 0.14865868245774091 0.0 0.8190009955643331 0.3270367587875256 0.0 0.8737158497595526 0.036090482227689395 0.0 0.9031078750870665 -0.02647331394533414 0.0 -0.038046665071164734 -0.059911938598716616 0.0 1.3097156751345225 0.1349346185536285 0.0 0.9341721890524592 -0.30533632627500856 0.0 1.2918902211459629 -0.11917798228989479 0.0 0.40898794572690456 0.027282398652607023 0.0 0.4384955262563368 -0.01854572111780613 0.0 -0.12507909203066372 -0.02920385771413339 0.0 1.0624363902746599 0.3228938633957686 0.0 0.9525449810172588 0.37950473422905173 0.0 1.0286703360210776 0.07077842970022395 0.0 0.9232210038000308 -0.048375908856802714 0.0 1.2735216474493363 0.054539075228110884 0.0 1.0333964231583466 -0.31792741188315377 0.0 1.098343221155716 -0.5580989032829134 0.0 0.9403146555292301 -0.3797860367196191 0.0 1.0121984253203977 -0.42479651093850646 0.0 0.9474687330480133 -0.5380722876785379 0.0 0.8745429870317231 -0.40171692115302576 0.0 1.3101134899600344 0.1570526524125221 0.0 1.3017577005831376 -0.14681827436496217 0.0 0.8562451870255384 -0.23043250709025329 0.0 0.8851449074903085 -0.30285799213925774 0.0 0.8588237727137151 -0.29473025386245516 0.0 0.8536097827530814 -0.24558317738673904 0.0 0.8575759055801343 -0.24486919378252917 0.0 0.9021901671234557 -0.30890153336001125 0.0 1.316047598937876 0.22794616648251378 0.0 1.1732869849401644 -0.03901858647643194 0.0 1.327324429525285 0.28850357208935296 0.0 1.3069308525787195 -0.20982723667934164 0.0 0.0 0.0 0.0 0.0 0.0 0.0 1.3103439258040135 -0.27677975169778857 0.0 0.7198429321490447 -0.267863889440715 0.0 0.824577682044737 -0.2095947783924084 0.0 0.8737244110320763 -0.10997613789898529 0.0 0.8655811480157357 -0.16206502215839408 0.0 0.9375 0.0 0.0 0.7500000000000001 0.0 0.0 0.7275919819137598 0.2626751291493033 0.0 0.828188254942277 0.19637569666641622 0.0 0.7499999999999999 0.0 0.0 0.8725868442037358 0.12462361731461243 0.0 0.930157649854542 0.04092142650499626 0.0 0.8509363909194472 0.04311376702770133 0.0 -0.09417370427905654 -0.04218864421816217 0.0 0.010337216520365502 -0.04089136599219284 0.0 1.1382519248352998 0.5373612677431073 0.0 1.0330069735052911 0.4586046678006442 0.0 0.8839091711310358 0.23786820557061422 0.0 1.2506190982677492 0.08594095773674876 0.0 1.3025375642233448 0.015776079145385338 0.0 0.28824031954654666 0.019986394228261904 0.0 1.3160978132438053 0.05078667338733829 0.0 0.8200796382901252 0.015208911664518076 0.0 1.230776798198215 0.055177008560268824 0.0 0.5857968251291874 -0.011233636080319789 0.0 0.5504695500883596 0.0033884857762506936 0.0 -0.0011656853490885845 0.029071500189280945 0.0 1.074780634511901 0.0010652935831370156 0.0 0.23323442576350992 0.014146608809051959 0.0 0.1454296379520608 0.005666447148838952 0.0 0.265142703322105 0.004984246762007848 0.0 0.7906026975530713 -0.037797625113622134 0.0 0.5821797833236865 -0.02026647767346413 0.0 1.297149477054509 -0.018800064615426597 0.0 0.6055888585416036 0.02941274271497571 0.0 1.2619771953675851 -0.08499701436548059 0.0 0.08872000011880564 -0.04364534303246799 0.0 1.1518485256138205 0.11560089071942399 0.0 0.8853431627308885 0.17433066799147282 0.0 0.6960999691873044 -0.15612699674263836 0.0 1.0457118987180003 -0.05739148981225743 0.0 1.0179280077524702 -0.1840574415734878 0.0 0.8665127794437182 -0.179263095124691 0.0 0.8778895465383664 -0.026369039494855435 0.0 0.43295324962431003 -0.015460809801722996 0.0 0.24059250726201759 -0.020875890884293327 0.0 1.29231308027576 0.002023923862837096 0.0 0.18990226093967105 -0.009244296900552623 0.0 1.303380816616039 -0.03535137541557939 0.0 0.1418795120864985 -0.022351017640805146 0.0 0.6100938669111963 0.013262005314710324 0.0 -0.0734547649088294 -0.026364476022754827 0.0 0.6425389577196122 0.0010923861416829335 0.0 0.8844067571035011 0.2899030433420399 0.0 0.8879227528656856 0.40375773479873844 0.0 0.8865359577402547 0.25672486893751456 0.0 0.9140833251496122 0.10664587139191214 0.0 0.8671810101530683 0.21443410512159575 0.0 0.9092320315922362 0.2931154470535347 0.0 0.8583654076405526 0.2228131584482721 0.0 0.8015661419042641 0.17325667857892846 0.0 0.8682764723511965 0.1556448968671774 0.0 0.0 0.0 0.0 0.8422788645401635 0.16937643541785058 0.0 0.873793398653282 0.16693310740006814 0.0 1.120356558706294 0.013864972691091246 0.0 1.268863471035744 0.02357615330499974 0.0 1.012805967337415 -0.019580990078302666 0.0 0.7257802018200386 -0.06377301241171918 0.0 1.214712046558345 0.08980019250885468 0.0 0.7161978429582753 -0.16468104194672192 0.0 1.1242202134160801 -0.1106417441974161 0.0 1.1015834147840144 0.013479134311194083 0.0 1.286638380481384 0.031191377990393884 0.0 0.6889446120605702 0.03207679628604833 0.0 1.2504820976670157 0.021792467823802637 0.0 1.0920952136851068 0.04576656411418863 0.0 -0.06631798962512457 -0.005511091261507592 0.0 -0.19377796663828017 0.005904009705990101 0.0 0.9503686435043358 0.32626312781108086 0.0 1.008302939024038 -0.05424345766857225 0.0 0.5147566378361823 -0.035807904827262184 0.0 0.0 0.0 0.0 1.2234999695066557 -0.00310397742899821 0.0 1.2539916040732124 -0.012127543273532852 0.0 1.2349080482250665 0.06058664158839322 0.0 1.1073784249543224 -0.07340637314861254 0.0 0.4569581956921855 0.007928595799029086 0.0 1.2489113177543176 0.048935306408096686 0.0 1.2468719848038325 0.09558334323834898 0.0 -0.012173500854698956 -0.013925814244640098 0.0 -0.16883560600933994 -0.014623721586607475 0.0 -0.15786367672544588 -0.015505852930534024 0.0 -0.1554117470326291 0.013314807682782166 0.0 1.15254302203498 0.1654543474822388 0.0 0.7731505139058872 0.1831424646710169 0.0 0.7776932056310752 0.14654992914080678 0.0 0.7859079278890221 0.1022906005801269 0.0 0.6179440434338856 0.10399768012467696 0.0 0.4047529716715711 -0.018721543878337275 0.0 0.07055218895785158 -0.0010061114383903415 0.0 0.46290705896351747 -0.05493599968214867 0.0 0.9917560847992636 0.04303548218287561 0.0 0.0 0.0 0.0 0.6185038373399632 0.04294828753700125 0.0 1.0485175157368287 0.06813370350732273 0.0 -0.224306277272457 0.004232646515955365 0.0 1.0801907315975914 0.22134888833244937 0.0 0.9013518745467559 0.10849244064051007 0.0 1.2610880487751563 -0.09024730223800034 0.0 0.19163756541675564 0.008443205956374622 0.0 0.43973287755142443 0.05098588194198388 0.0 0.14691291058314554 0.015503336433649416 0.0 1.2636688936647478 0.07780815784370734 0.0 -0.21525621523618904 -0.0006946064444265232 0.0 -0.17375484994329846 -0.00951090041419365 0.0 -0.20470779223315472 -0.0031921564197905862 0.0 -0.12950794159789905 0.015652512624466482 0.0 -0.19759079610254207 0.0021839589042906065 0.0 -0.2338307899449372 0.0034725662283114035 0.0 -0.14724293146089543 0.007532581817118951 0.0 -0.11865397024590667 0.004253855736466423 0.0 -0.2363509470058492 0.0017955450486388826 0.0 0.06421786506097964 -0.013286365537679833 0.0 -0.11948408059032166 0.010450094240061153 0.0 -0.23143059796957152 0.00044437009052663423 0.0 -0.2362585762961812 0.0014960080898253245 0.0 -0.07323338579880517 -0.01149116021311167 0.0 0.0 0.0 0.0 0.9375832087822489 0.2288031554964931 0.0 0.9517288655471703 0.03853365032894361 0.0 0.2600961474964249 -0.022513561414143107 0.0 0.33834759287072513 0.012092960979379636 0.0 0.6589275336773005 0.05816942824227752 0.0 1.0329685623365548 0.08746586135435583 0.0 1.2257190663596613 0.0737734627720492 0.0 1.25002116661106 -0.025350437581991046 0.0 0.0820114771647608 0.02027640863340445 0.0 -0.09926524157017035 -0.0046076065137993045 0.0 0.024681915224060248 -0.034665520445623814 0.0 0.15983119938312554 -0.02914227801185334 0.0 0.16190277545611623 -0.04034078936813603 0.0 0.4104674910912738 -0.0594054907832354 0.0 0.7317012767955962 -0.10527150795975689 0.0 0.9990213150819972 -0.1015586027612781 0.0 0.48561733762127934 -0.07548364717113216 0.0 0.6954304770635185 -0.08079474736822034 0.0 0.8039104356669579 -0.09892109270925872 0.0 0.9147685653126463 -0.08588194124882483 0.0 0.3585634689815429 -0.07012899402939338 0.0 1.2468128898191726 -0.10674160141458293 0.0 1.149176757833112 -0.09728437802575877 0.0 1.272882559837694 -0.0684522967070409 0.0 1.1450453683336073 -0.08208525946262901 0.0 -0.06805127603173453 -0.02640871285209386 0.0 1.1243438491733413 -0.1175992136307878 0.0 1.1532311386160996 -0.06893097994215618 0.0 1.1013754713750048 -0.09958689111091801 0.0 -0.17206678616767124 -0.0056016396649465035 0.0 0.6094859122000251 -0.09914178708061767 0.0 1.163905494528951 -0.13517995968393604 0.0 0.19397803652829484 -0.057606506117298756 0.0 -0.2143247371590361 0.0013932012003702934 0.0 1.2156851457667293 -0.1302813119944695 0.0 0.11602403063031287 -0.05516903429617113 0.0 -0.18750529595003718 -0.006264707278975714 0.0 -0.04849555534496987 0.0330150086108684 0.0 0.07841167314679412 -0.048360366025604846 0.0 -0.09267066345754467 -0.02354802444724809 0.0 0.572914901293607 -0.10459970098423456 0.0 -0.049138121018543236 -0.03040037402713931 0.0 0.20548679266085781 0.05895690564644637 0.0 -0.12926046096052607 0.019122616359117942 0.0 -0.0803061949401392 -0.019011682723272926 0.0 -0.14006616300559904 0.0011302498118924917 0.0 0.06041605157704617 0.04721533066272771 0.0 1.0703159839633813 0.10099252045759613 0.0 0.4404244658408948 0.08601456904048944 0.0 0.4497740026570712 -0.09634068376806888 0.0 0.31300332563745353 -0.03469908476980608 0.0 0.8446415696401294 -0.05862952592555076 0.0 0.35877730163952054 0.030115502666060247 0.0 1.2100746854454025 0.09519813134067764 0.0 1.0116985479750515 0.11091430313561461 0.0 1.0476265676549406 -0.13965443769087205 0.0 -0.12318495516865684 0.0022836248114684807 0.0 -0.1189047701726883 -0.01293382585109132 0.0 -0.21713568030730054 -0.0018549112173731179 0.0 -0.09764710358660793 0.022203167995530734 0.0 -0.14370939444708444 -0.013120554553969117 0.0 0.45543079512948587 -0.08858054975431827 0.0 1.1988643214733297 -0.13411695750304622 0.0 0.7910137647687101 -0.12072007398506912 0.0 1.0203435016787035 -0.14282704572998117 0.0 -0.025495397386191263 0.03226135778339615 0.0 0.12622332124991306 -0.05726250182816731 0.0 0.04487196976950699 -0.037463878227110836 0.0 0.33945538338024045 -0.08322872955309966 0.0 0.020043261508412853 -0.0380968602383487 0.0 1.141969080253025 0.13107038215867214 0.0 -0.055304505907388335 -0.006472518955340192 0.0 0.04281674183115967 0.017483372905452283 0.0 -0.019761300248399033 -0.004554830284649147 0.0 0.15149381369049683 -0.04656218334929914 0.0 0.4289481218036003 0.06471049382488951 0.0 0.8518351321767519 -0.130268847476253 0.0 0.6759543537132376 -0.11833276645038313 0.0 0.9382078586755231 -0.1261866895867018 0.0 0.3915662624273193 -0.08772229817788851 0.0 0.9600679710406793 -0.14111359550000735 0.0 1.1814048649457152 -0.13944857752857254 0.0 1.1399899256181263 -0.13656524014505247 0.0 1.1283349767681332 -0.12761196145364903 0.0 0.7648877448446004 -0.12752897394555046 0.0 0.6791940869046936 -0.11905957336693558 0.0 0.564683357240696 -0.10296725779063741 0.0 0.533933805700404 -0.10313741393735273 0.0 0.2623286722599989 -0.07132616696059511 0.0 0.9319168279236554 -0.13549986184734553 0.0 0.3206603074911319 0.046465384734377474 0.0 0.7401958259628804 0.08332479701014296 0.0 0.061475961232808046 0.02828358922954955 0.0 0.22009773887144193 0.052640320229660684 0.0 -0.14583002604789078 0.01300470799974472 0.0 1.2279803234302888 0.014219832106663883 0.0 1.0785861153571252 0.06567542738699628 0.0 1.2486999001891017 -0.049754865784343794 0.0 1.1856091664604098 -0.09807598173278931 0.0 0.30155317514269564 -0.07266478246730665 0.0 0.5320558173340214 -0.0913920177714593 0.0 0.6973357683285096 0.09846814805047631 0.0 0.1118202140290206 0.04739996457374458 0.0 1.1945868215612512 0.03724036864198716 0.0 1.2368427754372477 -0.06973798284039005 0.0 0.6808644985864298 0.11446863217678563 0.0 1.1888166000139377 -0.11154648475446372 0.0 0.725405699339981 0.09304644009180787 0.0 1.2307788956557582 0.11192186932894255 0.0 0.43836193548406927 0.08023447183730363 0.0 0.8485738518300018 0.11977453218340796 0.0 1.2163642735639564 0.05820049680134046 0.0 1.1001199930385546 -0.0526888144071188 0.0 1.171240973906913 -0.11921436349666496 0.0 0.9568259304455782 0.11403260915833346 0.0 1.11967880274138 0.12903607073262652 0.0 1.162229067263971 0.11965914048444216 0.0 1.1786158527420039 0.13341795543521467 0.0 1.145886384372326 0.14219335477669717 0.0 1.0690824152317957 0.13378075288993785 0.0 0.8171878274045136 0.12427044950965346 0.0 1.0993071209873426 -0.1145207704902564 0.0 0.0 0.0 0.0 1.1647972367919504 0.08862041783119816 0.0 1.0199787542848562 0.14098748905637976 0.0 0.44577380627062035 0.09117930065072773 0.0 1.1731263282442712 0.10433376859371483 0.0 1.010347278237499 0.13908349791063526 0.0 1.1962792258078874 0.12866319697474896 0.0 0.7505747190193112 0.12213784957576711 0.0 1.1593692509039435 0.13316593893564743 0.0 0.7074571144967998 0.11950400620582494 0.0 0.3704525792773049 0.08513907458944725 0.0 1.1439444128713598 0.14268660014597653 0.0 0.812959306502412 0.129259098302937 0.0 1.1032384587296253 0.14323915398932774 0.0 0.9648273445581124 0.14029533455957335 0.0 0.910590316622876 0.13498556258801966 0.0 1.1879098782211226 0.1333108722411224 0.0 1.1457813174048916 0.1389321052807114 0.0 1.1534154018204064 0.11374058622173217 0.0 0.232323283803311 0.06827889358890228 0.0 0.9313284918769638 0.08969567442805317 0.0 1.151594780594993 0.1382698706419313 0.0 1.1312369710778651 0.13964414523304386 0.0 1.104464027586785 0.11937060206879066 0.0 1.1221496194430776 0.12696993074040094 0.0 1.1278441416536897 0.11579657194672607 0.0 0.9931897621066881 0.08480191118638766 0.0 1.0219578518512313 0.13356810454379056 0.0 1.0245900552163822 0.10416862038202455 0.0 1.1091495665124809 0.11534007962193064 0.0 0.8175750541970963 0.07166833588054274 0.0 1.115537326933337 0.13137417746812596 0.0 1.0808120174503422 0.12665592161227152 0.0 1.087412723989739 0.1387379270203897 0.0 1.0303779832058204 0.103831295886739 0.0 0.0 0.0 0.0 0.6487126827731148 -0.007223182922527268 0.0 1.0910525280749144 0.409633524449429 0.0 1.1831043077524335 0.38631025763604576 0.0 1.0981416650381217 -0.4027423206547766 0.0 0.8596202825558531 -0.2070676350583468 0.0 0.9712251429901984 -0.22489607775413395 0.0 0.8937278804634192 -0.08356008312955022 0.0 1.2586423131847755 -0.012590019526294273 0.0 1.1650442141064976 -0.025967525486254858 0.0 1.2491386645573066 -0.055864396159655653 0.0 1.177955123840414 -0.03744201768672136 0.0 1.21931402951917 -0.011131550889026811 0.0 -0.14265926459132594 -0.008934346246869604 0.0 -0.13389320577174288 0.02408858218252135 0.0 -0.07374674770211542 0.02237611230088065 0.0 -0.07788704546950821 0.03878582943019548 0.0 0.06555315502335916 0.03621662171503556 0.0 -0.11589195952209262 0.029811035743301243 0.0 -0.03906621554490542 0.057106197328442306 0.0 0.08856313119140956 0.04447956791949867 0.0 -0.033324015119060794 0.06925854771784234 0.0 -0.08167863195252703 0.04613582571584877 0.0 0.9883595004484156 0.11904478947653362 0.0 -0.12819844395277952 0.021231617104020738 0.0 1.1814961675651816 -0.13612426899118527 0.0 1.1601144543611528 -0.14477291830751182 0.0 1.055230223700577 -0.14508106769731796 0.0 1.1315682513841545 -0.14455761084813204 0.0 1.1310208082781297 -0.12027515656071788 0.0 1.0231906810310927 -0.1421490518864217 0.0 1.1467040139977838 -0.12813202827696196 0.0 1.1077156946612507 -0.13887292851787458 0.0 1.1357163862314947 -0.1407318718390689 0.0 0.9812055740996513 -0.1275907352577983 0.0 1.013128380492162 -0.13467386187710276 0.0 0.7998129783166111 -0.12076469944495641 0.0 1.1094419920055845 -0.13158344512977835 0.0 1.1149412741455258 -0.11089866287686731 0.0 1.0875184233000847 -0.12242307296095546 0.0 0.9474009445445993 -0.08875406156308266 0.0 1.1255689412984606 -0.12009912481981326 0.0 0.8441626551983288 -0.10992004129254673 0.0 1.1058129439978748 -0.11187800647339885 0.0 1.0203229836487135 -0.11566602404454165 0.0 0.8038078653968765 -0.09285442249026242 0.0 0.9493885229696136 -0.08854146849901771 0.0 0.8817512716194578 -0.10465663440793953 0.0 0.4211669511051356 -0.0665660652413035 0.0 0.9793712073651886 -0.10334166528361402 0.0 0.6598623869816269 -0.0878