<?xml version="1.0"?>
<VTKFile type="UnstructuredGrid"  version="0.1"  >
<UnstructuredGrid>
<Piece  NumberOfPoints="1289" NumberOfCells="2413">
<Points>
<DataArray  type="Float64"  NumberOfComponents="3"  format="ascii">0 0 0  0 0.41 0  2.2 0.41 0  2.2 0 0  0.1 0.1 0  0.1 0.3 0  0.8 0.3 0  0.8 0.1 0  0.25 0.2 0  0.248976 0.210065 0  0.245948 0.219718 0  0.241038 0.228563 0  0.234448 0.23624 0  0.226448 0.242432 0  0.217365 0.246888 0  0.207571 0.249423 0  0.197468 0.249936 0  0.187467 0.248404 0  0.17798 0.24489 0  0.169395 0.239539 0  0.162062 0.232569 0  0.156283 0.224265 0  0.152293 0.214968 0  0.150257 0.205058 0  0.150257 0.194942 0  0.152293 0.185032 0  0.156283 0.175735 0  0.162062 0.167431 0  0.169395 0.160461 0  0.17798 0.15511 0  0.187467 0.151596 0  0.197468 0.150064 0  0.207571 0.150577 0  0.217365 0.153112 0  0.226448 0.157568 0  0.234448 0.16376 0  0.241038 0.171437 0  0.245948 0.180282 0  0.248976 0.189935 0  1.1 0 0  1.1 0.41 0  0.1 0.2 0  0.45 0.1 0  0.45 0.3 0  0.55 0 0  0.275 0.1 0  0.275 0.3 0  0.275 0 0  0.55 0.41 0  0 0.205 0  0.825 0 0  0.825 0.41 0  0.275 0.41 0  0.1 0.15 0  0.1875 0.1 0  0.1 0.25 0  0.1875 0.3 0  0.132322 0.2 0  0.241426 0.253518 0  0.241426 0.146482 0  0.264574 0.17974 0  0.264574 0.22026 0  0.138434 0.187348 0  0.153372 0.150948 0  0.148413 0.164094 0  0.176495 0.136535 0  0.22768 0.143571 0  0.138434 0.212652 0  0.148413 0.235906 0  0.176495 0.263465 0  0.22768 0.256429 0  0.23125 0.3 0  0.24769 0.24094 0  0.23125 0.1 0  0.24769 0.15906 0  0.26253 0.193641 0  0.190482 0.137872 0  0.166753 0.146661 0  0.157737 0.244461 0  0.190482 0.262128 0  0.203107 0.261264 0  0.253635 0.22977 0  0.203107 0.138736 0  0.253635 0.17023 0  0.261028 0.206206 0  0.167707 0.251809 0  0.143629 0.224191 0  0.215302 0.2591 0  0.270465 0.245894 0  0.215302 0.1409 0  0.270465 0.154106 0  0.284052 0.202587 0  0.14375 0.3 0  0.209375 0.3 0  0.225966 0.278501 0  0.209375 0.1 0  0.225966 0.121499 0  0.211613 0.273759 0  0.211613 0.126241 0  0.143629 0.175809 0  0.1 0.175 0  0.133484 0.164832 0  0.144491 0.249539 0  0.1 0.225 0  0.133484 0.235168 0  0.3625 0.3 0  0.25691 0.253381 0  0.25691 0.146619 0  0.277205 0.188698 0  0.184724 0.275712 0  0.237372 0.268285 0  0.184724 0.124288 0  0.237372 0.131715 0  0.197578 0.273149 0  0.193656 0.286994 0  0.197578 0.126851 0  0.193656 0.113006 0  0.122953 0.187671 0  0.118362 0.153758 0  0.155372 0.258107 0  0.122953 0.212329 0  0.118362 0.246242 0  0.276394 0.27264 0  0.276394 0.12736 0  0.280965 0.170013 0  0.253125 0.3 0  0.14375 0.1 0  0.253125 0.1 0  0.269489 0.26014 0  0.269489 0.13986 0  0.303639 0.184297 0  0.165625 0.3 0  0.134742 0.273113 0  0.257831 0.274737 0  0.255279 0.128499 0  0.3625 0.1 0  0.165625 0.1 0  0.162031 0.132368 0  0.134955 0.126405 0  0.149334 0.125568 0  0.142936 0.139597 0  0.12695 0.140259 0  0.242514 0.285501 0  0.242514 0.114499 0  0.1 0.125 0  0.117483 0.12555 0  0.11154 0.139776 0  0.121875 0.1 0  0.109143 0.1125 0  0.126805 0.114 0  0.220313 0.29129 0  0.351562 0.287369 0  0.207222 0.2866 0  0.220312 0.10871 0  0.1375 0 0  0.20625 0 0  0.207222 0.1134 0  0.11722 0.17118 0  0.1 0.1625 0  0.0778409 0.16875 0  0.0862762 0.15625 0  0 0.15375 0  0 0.1025 0  0.11722 0.22882 0  0.1 0.2375 0  0 0.3075 0  0.0862762 0.23125 0  0.0598995 0.222547 0  0.0860223 0.2125 0  0.289584 0.181469 0  0.300267 0.16446 0  0.163832 0.269071 0  0.149597 0.273325 0  0.1 0.275 0  0.268498 0.285953 0  0.31875 0.3 0  0.294154 0.254672 0  0.296875 0.3 0  0.293558 0.271845 0  0.285095 0.286799 0  0.324298 0.264316 0  0.307866 0.263745 0  0.317093 0.234901 0  0.315485 0.281219 0  0.316547 0.250625 0  0.344693 0.243731 0  0.331592 0.251147 0  0.35129 0.270663 0  0.338689 0.263683 0  0.340625 0.3 0  0.249849 0.264383 0  0.265097 0.11422 0  0.284688 0.156136 0  0.242188 0.324017 0  0.0856613 0.2625 0  0.132812 0.0612217 0  0.264062 0.0612217 0  0.198437 0.07598340000000001 0  0.0860223 0.1375 0  0.0794526 0.191089 0  0.285228 0.140397 0  0.298655 0.148737 0  0.31875 0.1 0  0.327335 0.15374 0  0.296875 0.1 0  0.312289 0.155283 0  0.313348 0.135607 0  0.321802 0.173916 0  0.298433 0.134116 0  0.112124 0.2625 0  0.127526 0.259083 0  0.121875 0.3 0  0.0682687 0.241503 0  0.1 0.2875 0  0.117762 0.28125 0  0.107813 0.3 0  0.103906 0.313849 0  0.0778409 0.28125 0  0.1375 0.41 0  0.0862762 0.29375 0  0.08886860000000001 0.24375 0  0.307812 0.338778 0  0.307812 0.292227 0  0.33216 0.279164 0  0.387888 0.266414 0  0.264063 0.31948 0  0.110937 0.07598340000000001 0  0.242188 0.07598340000000001 0  0.319914 0.11839 0  0.340625 0.1 0  0.334448 0.133793 0  0.329687 0.108539 0  0.346259 0.118491 0  0.360334 0.173636 0  0.327539 0.205033 0  0.132812 0.288712 0  0.362436 0.278836 0  0.368105 0.259418 0  0.4125 0.41 0  0.329687 0.324017 0  0.329687 0.292306 0  0.285938 0.318952 0  0.417187 0.338778 0  0.324481 0.14148 0  0.351562 0.106771 0  0.40625 0.1 0  0.341028 0.168342 0  0.319221 0.190479 0  0.335292 0.184501 0  0.305563 0.20794 0  0.220313 0.31948 0  0.132812 0.332772 0  0.0865876 0.311259 0  0.0598995 0.302453 0  0.0906541 0.343255 0  0.353543 0.255837 0  0.36574 0.237633 0  0.405007 0.254279 0  0.275795 0.352123 0  0.4125 0 0  0.35493 0.137394 0  0.366563 0.120618 0  0.35917 0.205246 0  0.198438 0.318952 0  0.0626109 0.263892 0  0.40625 0.3 0  0.354809 0.155936 0  0.386512 0.146872 0  0.373101 0.159939 0  0.384375 0.1 0  0.343394 0.19929 0  0.350682 0.185683 0  0.368101 0.189748 0  0.344016 0.221511 0  0.391108 0.213329 0  0.376279 0.204783 0  0.398843 0.182768 0  0.375804 0.222746 0  0.390665 0.196958 0  0.394004 0.23518 0  0.359883 0.222828 0  0.419908 0.204359 0  0.404243 0.204783 0  0.412615 0.224526 0  0.20625 0.41 0  0.165625 0.325257 0  0.0347982 0.244954 0  0.379558 0.247154 0  0.34165 0.147603 0  0.372264 0.136992 0  0.388988 0.121989 0  0.373437 0.108554 0  0.351562 0.31948 0  0.391367 0.16527 0  0.399572 0.223324 0  0.452011 0.227371 0  0.40877 0.239392 0  0.431491 0.237337 0  0.421224 0.250459 0  0.449619 0.262098 0  0.418865 0.276779 0  0.437063 0.252274 0  0.415673 0.263227 0  0.430988 0.266772 0  0.402767 0.273419 0  0.452967 0.244883 0  0.428125 0.3 0  0.408502 0.286186 0  0.384375 0.3 0  0.392267 0.285807 0  0.465927 0.219339 0  0.43489 0.283846 0  0.376424 0.286289 0  0.625 0.3 0  0.473533 0.205186 0  0.461713 0.255517 0  0.5375 0.3 0  0.465725 0.235405 0  0.44631 0.201425 0  0.471875 0.3 0  0.494307 0.227729 0  0.459448 0.206736 0  0.462294 0.180792 0  0.478933 0.227536 0  0.486793 0.21381 0  0.486322 0.251373 0  0.50065 0.215318 0  0.54005 0.175389 0  0.474633 0.189893 0  0.512916 0.208697 0  0.49531 0.199967 0  0.475889 0.175275 0  0.625 0.1 0  0.459311 0.153933 0  0.513645 0.242704 0  0.392892 0.248539 0  0.374815 0.271913 0  0.365974 0.14871 0  0.395312 0.109184 0  0.417061 0.123981 0  0.483196 0.277003 0  0.381967 0.179632 0  0.429898 0.219374 0  0.433473 0.206165 0  0.43149 0.181038 0  0.444208 0.215487 0  0.472985 0.247309 0  0.49375 0.3 0  0.475579 0.262714 0  0.49916 0.274293 0  0.501175 0.184809 0  0.514164 0.225681 0  0.543648 0.214977 0  0.5341630000000001 0.23481 0  0.527396 0.216171 0  0.5375 0.1 0  0.534548 0.202315 0  0.561545 0.192513 0  0.5494289999999999 0.201221 0  0.570923 0.218346 0  0.412582 0.149833 0  0.489327 0.264745 0  0.502439 0.254775 0  0.462391 0.271166 0  0.496775 0.241732 0  0.5294410000000001 0.268606 0  0.482812 0.291099 0  0.46879 0.285038 0  0.452663 0.284065 0  0.51789 0.257882 0  0.53408 0.252026 0  0.560142 0.243543 0  0.545708 0.243474 0  0.547532 0.229019 0  0.55282 0.265323 0  0.398971 0.153424 0  0.400349 0.135684 0  0.410135 0.168145 0  0.428823 0.161323 0  0.415266 0.183779 0  0.329687 0.0810483 0  0.395312 0.0612217 0  0.373437 0.318952 0  0.439062 0.324017 0  0.561816 0.229354 0  0.585029 0.239287 0  0.431827 0.139854 0  0.446796 0.168929 0  0.351562 0.07598340000000001 0  0.395313 0.318944 0  0.54337 0.150762 0  0.460937 0.31948 0  0.418412 0.137529 0  0.428125 0.1 0  0.442783 0.152332 0  0.450742 0.134294 0  0.373437 0.0805201 0  0.384383 0.342558 0  0.482812 0.318952 0  0.429239 0.127457 0  0.444274 0.117405 0  0.426548 0.113815 0  0.49375 0.1 0  0.488954 0.113984 0  0.457973 0.121842 0  0.471621 0.137346 0  0.515625 0.325257 0  0.48125 0.41 0  0.417187 0.07598340000000001 0  0.496363 0.126778 0  0.479043 0.155715 0  0.439062 0.0805201 0  0.481795 0.126919 0  0.471875 0.1 0  0.489227 0.142159 0  0.515625 0.1 0  0.520062 0.147117 0  0.501244 0.161791 0  0.505431 0.112984 0  0.505344 0.14029 0  0.526563 0.119081 0  0.5181750000000001 0.131908 0  0.539868 0.136937 0  0.460937 0.108383 0  0.474242 0.114415 0  0.460937 0.0810483 0  0.487841 0.167168 0  0.526563 0.0612217 0  0.526563 0.106406 0  0.537619 0.112743 0  0.58125 0.1 0  0.559375 0.1 0  0.482812 0.08105569999999999 0  0.471883 0.0587655 0  0.570312 0.129396 0  0.548437 0.07598340000000001 0  0.504687 0.08105569999999999 0  0.49375 0.0470127 0  0.570312 0.112663 0  0.592798 0.12103 0  0.553986 0.12103 0  0.570312 0.0805201 0  0.48125 0 0  0.114787 0.2 0  0.160769 0.284765 0  0.175816 0.288361 0  0.162602 0.116048 0  0.154687 0.07598340000000001 0  0.176562 0.0805201 0  0.0598995 0.147547 0  0.307812 0.109924 0  0.291279 0.117157 0  0.278491 0.112989 0  0.285937 0.07598340000000001 0  0.307812 0.0805201 0  0.296928 0.196743 0  0.318141 0.218507 0  0.330208 0.227509 0  0.301397 0.225668 0  0.302706 0.241401 0  0.292574 0.21424 0  0.282762 0.230935 0  0.284351 0.244775 0  0.269553 0.23261 0  0.278572 0.217242 0  0.226924 0.342606 0  0.446928 0.185396 0  0.515625 0.3 0  0.504687 0.288879 0  0.515256 0.276534 0  0.529479 0.285328 0  0.58125 0.3 0  0.541969 0.272936 0  0.559375 0.3 0  0.556796 0.282529 0  0.543473 0.287206 0  0.581429 0.267774 0  0.566728 0.271171 0  0.570869 0.255585 0  0.577404 0.283865 0  0.603125 0.3 0  0.597531 0.28035 0  0.570312 0.338778 0  0.592188 0.292492 0  0.603513 0.256094 0  0.614063 0.286265 0  0.610329 0.27064 0  0.632708 0.251285 0  0.657223 0.261594 0  0.618789 0.257807 0  0.614188 0.22987 0  0.630935 0.265614 
[...]
<PointData  Vectors="v"> 
	<DataArray  type="Float64"  Name="v"  NumberOfComponents="3" format="ascii">
0.0 0.0 0.0 0.0 0.0 0.0 0.0 0.0 0.0 0.0 0.0 0.0 0.7974642033075091 -0.18901932898116147 0.0 0.8412495801566566 0.19844889744840327 0.0 1.0238774971719968 -0.030329713824191053 0.0 0.9685541123141249 0.028018442764255788 0.0 0.0 0.0 0.0 0.0 0.0 0.0 0.0 0.0 0.0 0.0 0.0 0.0 0.0 0.0 0.0 0.0 0.0 0.0 0.0 0.0 0.0 0.0 0.0 0.0 0.0 0.0 0.0 0.0 0.0 0.0 0.0 0.0 0.0 0.0 0.0 0.0 0.0 0.0 0.0 0.0 0.0 0.0 0.0 0.0 0.0 0.0 0.0 0.0 0.0 0.0 0.0 0.0 0.0 0.0 0.0 0.0 0.0 0.0 0.0 0.0 0.0 0.0 0.0 0.0 0.0 0.0 0.0 0.0 0.0 0.0 0.0 0.0 0.0 0.0 0.0 0.0 0.0 0.0 0.0 0.0 0.0 0.0 0.0 0.0 0.0 0.0 0.0 0.0 0.0 0.0 0.0 0.0 0.0 0.0 0.0 0.0 0.0 0.0 0.0 0.7648477891535874 -0.0027167235136119424 0.0 1.21341171370269 0.12498714783259357 0.0 1.230553559836927 -0.1178204773968332 0.0 0.0 0.0 0.0 1.302012848744814 -0.07595551733385843 0.0 1.3151677270138857 0.09123256317656184 0.0 0.0 0.0 0.0 0.0 0.0 0.0 1.0 0.0 0.0 0.0 0.0 0.0 0.0 0.0 0.0 0.0 0.0 0.0 0.8470788775729512 -0.22937127660462153 0.0 1.1545854811036236 -0.30195986647884915 0.0 0.8680581357578976 0.22426071747239762 0.0 1.1689600576963577 0.30871046792182627 0.0 0.43210353076059377 -0.005833949974675487 0.0 0.16583036244326815 0.027239935511535876 0.0 0.1712659988258307 -0.023390868590103378 0.0 -0.04672394866111571 -0.0648087606770157 0.0 -0.049483699516341545 0.06325971171643643 0.0 0.3382206254515933 -0.28354875592789097 0.0 0.8737085986949389 -0.6730330730466587 0.0 0.651311526372668 -0.6948954326895397 0.0 1.2436339872258277 -0.6030002481159631 0.0 0.30301061071724283 0.002879730060373192 0.0 0.3338598635050367 0.26842299962510635 0.0 0.6525376510940049 0.6719031061875809 0.0 1.2209289642675134 0.6031423187771408 0.0 0.290892365268575 0.0007656633697523882 0.0 1.283080613158967 0.1932323174748028 0.0 -0.020235781899454377 0.05420628228860968 0.0 1.2727699149442828 -0.1757292483800556 0.0 -0.017265738278239854 -0.053416045274044345 0.0 -0.0360026015520102 -0.026890906523596974 0.0 1.2246469533488917 -0.3986742332698194 0.0 1.1287617300797836 -0.730953743035399 0.0 0.8709479968099033 0.7773081210882166 0.0 1.2314157404718407 0.3988100297339696 0.0 0.9098111636534343 0.16463516396618294 0.0 -0.03770432253591036 0.06867767279351569 0.0 0.9174556331064326 -0.16057367895155295 0.0 -0.03835303217400328 -0.06896399885511616 0.0 -0.03065685246806425 0.0213494638791058 0.0 1.0606644585626352 0.7279051455753041 0.0 0.4478552080046746 0.5313727570851331 0.0 0.5373092090441955 0.03193971687118028 0.0 0.07525096071380954 0.04865751195365953 0.0 0.5452090915759219 -0.030812175623816496 0.0 0.08183910796504461 -0.05093144780789712 0.0 -0.11087121003839472 0.0046085308093719276 0.0 0.9691587214758021 0.29781394843372455 0.0 1.2527488908348465 0.24572272634551692 0.0 1.2959594245156587 0.2036274140012884 0.0 1.2257979136508483 -0.24402237830800078 0.0 1.2924623598019254 -0.19698142414753317 0.0 1.3047385763837902 0.2540279371552342 0.0 1.3073818740596705 -0.24657042650940636 0.0 0.44993744718063816 -0.5510572477770926 0.0 0.8059145263930576 -0.1395257916568337 0.0 0.6793059379673991 -0.4199831627493415 0.0 0.8912626771065854 0.5911938784571745 0.0 0.803189501339988 0.13995868233879927 0.0 0.6843553059711276 0.4176633347978546 0.0 1.2783515316215885 -0.04553965191138498 0.0 0.19225215880609886 0.033284487585676474 0.0 0.20769092672303074 -0.02776591036155255 0.0 -0.08439977877271751 -0.0374407008080665 0.0 1.3024160149556674 0.42787243375743517 0.0 0.8774421191441851 0.06748267535130661 0.0 1.2974561892277305 -0.4336752396226203 0.0 0.894443998090044 -0.06064289232666226 0.0 1.3328903231799247 0.35972662181167814 0.0 1.2705878786384914 0.34553367856469014 0.0 1.328147115917448 -0.3576980655137323 0.0 1.261210323695909 -0.3269415522850726 0.0 0.5884456035612137 -0.16215395505198923 0.0 0.8033006913848054 -0.32999177354358283 0.0 1.0314355403781024 0.5960164486203283 0.0 0.5963410113677654 0.1487022860855966 0.0 0.8190318966625305 0.32707319127049306 0.0 0.8747219686310008 0.035677849322081796 0.0 0.9020470072264687 -0.026916801203799683 0.0 -0.037845053893528637 -0.060500821058878905 0.0 1.3096925680885938 0.13455604909621469 0.0 0.934122708273854 -0.3053726254849369 0.0 1.2919302024566777 -0.11958991115293748 0.0 0.4099096786542504 0.02709623405860316 0.0 0.4374602618046578 -0.018784330175362855 0.0 -0.12465203273534813 -0.030852002246266847 0.0 1.0624949866510973 0.3228148751955122 0.0 0.95259929563283 0.3795040138671848 0.0 1.0294057896309734 0.07051663483932424 0.0 0.9223899280596196 -0.04861909406201992 0.0 1.2749999189175953 0.054321405863890185 0.0 1.0333390047236206 -0.31801143785442737 0.0 1.0982530077326977 -0.558126875598864 0.0 0.9402581040356549 -0.37979176581172996 0.0 1.0121277396460728 -0.4248255036867777 0.0 0.9474066543654817 -0.5380642281679064 0.0 0.8744983262562128 -0.40169702079199066 0.0 1.31031876903136 0.15673594056395634 0.0 1.3015519572248184 -0.14716585900434218 0.0 0.8562157357789986 -0.23040207574376734 0.0 0.8851042623844816 -0.30284321685909515 0.0 0.8587888321682083 -0.2947008054353912 0.0 0.8535707418465548 -0.24558952598632264 0.0 0.8575402971089667 -0.24485513941086579 0.0 0.902144947605315 -0.30890546245420175 0.0 1.3161276820597891 0.22768725383654503 0.0 1.1724113022563893 -0.03980837851710327 0.0 1.3274385297843343 0.2882988711765442 0.0 1.3068511223274895 -0.21011155488293404 0.0 0.0 0.0 0.0 0.0 0.0 0.0 1.3102315125774493 -0.27700372724741185 0.0 0.7198234591052767 -0.26782091025074334 0.0 0.824557546588067 -0.20954644279998402 0.0 0.873716226398495 -0.10991906406513859 0.0 0.8655640916071679 -0.16201312012467772 0.0 0.9375 0.0 0.0 0.7500000000000001 0.0 0.0 0.7276109900267111 0.2627196974828209 0.0 0.8282083286047545 0.19642507221991987 0.0 0.7499999999999999 0.0 0.0 0.872598824926518 0.12467971549114605 0.0 0.9301624677324006 0.04097756156673808 0.0 0.8509417602105187 0.04317333936643263 0.0 -0.09384575308144547 -0.0432074899558403 0.0 0.010633014792786062 -0.04212321095767384 0.0 1.1383436616630795 0.537327266883124 0.0 1.033076284350176 0.4585881852320619 0.0 0.883937408700511 0.2379015137710128 0.0 1.250969940199828 0.08549448656793568 0.0 1.3020215102716843 0.015131159139185562 0.0 0.289024688860281 0.01917784050009452 0.0 1.3158615848878228 0.05017617787860563 0.0 0.8212075472197342 0.014553557306899348 0.0 1.2311547422134388 0.05458792719803609 0.0 0.5865234624253519 -0.012738139238562261 0.0 0.5515359755562357 0.0022963164845445326 0.0 -0.001870670591152227 0.026993541067705715 0.0 1.075300873043245 0.00012648486353367995 0.0 0.23331812465393825 0.012495473376289689 0.0 0.14424033022824398 0.0028159233439696207 0.0 0.2648234458179271 0.0028555145469485667 0.0 0.790291816202045 -0.039335685868039656 0.0 0.582362101704964 -0.022089493384004243 0.0 1.2962019405527319 -0.01932128749765542 0.0 0.6063582582274661 0.029280643260721967 0.0 1.2616282938905252 -0.08545379994416752 0.0 0.08844140214840036 -0.04420993103106173 0.0 1.151747587858291 0.11532710813972781 0.0 0.88536376503101 0.17437572000410453 0.0 0.6960678539072743 -0.15615048655080058 0.0 1.0459756655800545 -0.057671891681695814 0.0 1.0179318106474098 -0.18420580064539244 0.0 0.8664919535411724 -0.17922108423687855 0.0 0.8778877130873521 -0.026309209530989155 0.0 0.43180862066959147 -0.015958957626919228 0.0 0.23998857866664985 -0.02181674714835024 0.0 1.292871413586591 0.0013220035844400397 0.0 0.19021456630442005 -0.011336875887712743 0.0 1.30361701215087 -0.03600088401222074 0.0 0.14195579641462444 -0.02395183289616039 0.0 0.6089004790741832 0.012094541602785674 0.0 -0.0726522315062586 -0.028736367619405394 0.0 0.6412042392185808 0.0002479495992895271 0.0 0.8844435436987095 0.28993185099503693 0.0 0.887966565897334 0.4037807511691592 0.0 0.8865727888384407 0.2567217343388207 0.0 0.9140936915677889 0.10670114827499019 0.0 0.8672089857244828 0.21445655163734817 0.0 0.9092723824537592 0.2931288961169963 0.0 0.8583982777940422 0.2228258334717429 0.0 0.8015957523095122 0.1732629647624574 0.0 0.8682972249492988 0.15568384588895703 0.0 0.0 0.0 0.0 0.8423011492968351 0.16940605470528655 0.0 0.873810971123976 0.16698379242212671 0.0 1.11984970899793 0.013605111671571206 0.0 1.2688276034900383 0.02279502840562561 0.0 1.013040642848601 -0.020717932449594918 0.0 0.7228934076379872 -0.06458614994454982 0.0 1.2145290842929817 0.08944941780595982 0.0 0.7161706969774081 -0.16468276239854235 0.0 1.124339080020767 -0.11091980385562333 0.0 1.1011196382238666 0.012430665237716979 0.0 1.2876048280424564 0.03060797329378396 0.0 0.6882359071142602 0.03046523941018726 0.0 1.250908823566109 0.020911400876426425 0.0 1.0924017830849702 0.04468415481880288 0.0 -0.06468656356109875 -0.009042141920442852 0.0 -0.19391901945530665 0.0029747230961600876 0.0 0.950418136573392 0.32625233648134944 0.0 1.0071913167320747 -0.055168876392493196 0.0 0.5130795741438635 -0.03787475553013651 0.0 0.0 0.0 0.0 1.2226846750280067 -0.0033610452747364432 0.0 1.2535455104598348 -0.012955294547723649 0.0 1.2345956801265228 0.06017745787926437 0.0 1.106982913559052 -0.07216453407354304 0.0 0.45629782178940265 0.006300468587437321 0.0 1.2499580046055045 0.048347478043029614 0.0 1.2487908012282525 0.09682838790371906 0.0 -0.010958583651898128 -0.016936104849971007 0.0 -0.1684260301295677 -0.017020364242759753 0.0 -0.15713031089910354 -0.018575973671726604 0.0 -0.15555954045482184 0.011479438291364821 0.0 1.152526343682414 0.16522859565773232 0.0 0.7731778718082714 0.18311981434697222 0.0 0.7777150852494413 0.1465705041790241 0.0 0.7859198324350878 0.10232483969485583 0.0 0.6179651331981607 0.10400720127238074 0.0 0.4037642831280159 -0.021094533574229194 0.0 0.06841970013232794 -0.004263245419800687 0.0 0.4584577483345865 -0.05543257742082217 0.0 0.9914600082818714 0.04283541962230346 0.0 0.0 0.0 0.0 0.618845740109852 0.041048857735778994 0.0 1.049600882498369 0.06729203886868304 0.0 -0.22453672725442872 0.0002774582886517416 0.0 1.080201804999387 0.22119729299459776 0.0 0.9013636882125987 0.10853943301390183 0.0 1.2589580751374616 -0.0887450372128506 0.0 0.19304516670236865 0.005586408536149471 0.0 0.4424846835514889 0.04930561975880232 0.0 0.14918156386100842 0.012529705768620251 0.0 1.2655098509789655 0.07827482906569698 0.0 -0.21509941308335284 -0.004191062384371559 0.0 -0.17283736862945057 -0.013137577397060408 0.0 -0.2037993267083759 -0.007102719025332033 0.0 -0.1304045640085476 0.012248120898287706 0.0 -0.1987270796114976 -0.0010905070859186883 0.0 -0.23402078011447455 -0.00041171536620651574 0.0 -0.14508704994924915 0.00488553213583486 0.0 -0.12033201952553016 0.00071565543560253 0.0 -0.23580158405297244 -0.0015262884421555919 0.0 0.06098370294261497 -0.015711867951256668 0.0 -0.12090201608650986 0.006802819607718154 0.0 -0.2318202534980765 -0.00044841459439211843 0.0 -0.2365723560601165 -0.0008999362214689756 0.0 -0.0761873291708154 -0.012845449488823305 0.0 0.0 0.0 0.0 0.9376125677154152 0.2287312581012946 0.0 0.9517307443607576 0.03857434065747114 0.0 0.2572932352345831 -0.025055027401149493 0.0 0.3387063921688497 0.009803749627415332 0.0 0.6604085014628407 0.056604761935007714 0.0 1.0352610822771078 0.08738370558209728 0.0 1.2273835622549827 0.07368470615738947 0.0 1.2489244681340408 -0.02540340243939226 0.0 0.0850637669040373 0.017797954125625667 0.0 -0.10170413100322563 -0.0071095325665156105 0.0 0.01999785162277703 -0.031194326101580995 0.0 0.15566995436840245 -0.03020538013963047 0.0 0.15681806435647738 -0.03912434012765713 0.0 0.40507320572915634 -0.05866934378944509 0.0 0.7252905529306283 -0.10140089250076775 0.0 0.9947666098066191 -0.09966784877546635 0.0 0.47937057871516486 -0.07299657813659421 0.0 0.6904335834676312 -0.07982994800129892 0.0 0.7983410661230121 -0.09651229518780863 0.0 0.911082941271636 -0.0853024688869165 0.0 0.35216687548722353 -0.06628186492103215 0.0 1.2449625821979902 -0.10444445957275074 0.0 1.146069509521472 -0.09576459155698526 0.0 1.2709281977711036 -0.06789437650174857 0.0 1.1423899297493847 -0.08155337827390952 0.0 -0.0717303060014238 -0.02130956508680776 0.0 1.1206320830686558 -0.11454741970916943 0.0 1.151304003488906 -0.06904751396723321 0.0 1.1029322021348371 -0.10386623071084315 0.0 -0.17289687598397857 0.0003697630608414052 0.0 0.6028233997216987 -0.09439192907644649 0.0 1.1673142036497495 -0.13533889014431086 0.0 0.18825638971601083 -0.05251852575074687 0.0 -0.21419514837195622 0.003776974104023139 0.0 1.215690134366436 -0.12719139823516537 0.0 0.11152515135420642 -0.04778077591222633 0.0 -0.18879780704310045 -0.0019433949229862944 0.0 -0.04449261577378829 0.03756498804012706 0.0 0.07365679681957282 -0.04183352380548438 0.0 -0.095250502753452 -0.01631065600784279 0.0 0.5667865832712411 -0.0986344407104413 0.0 -0.051692985259575976 -0.02232350158106336 0.0 0.2053901526749973 0.06473333095763927 0.0 -0.12681596686847083 0.025105401028019596 0.0 -0.0816752111529971 -0.010279758789990762 0.0 -0.14002393287147633 0.00920060909368078 0.0 0.06499867397632864 0.053210569291686126 0.0 1.0692764230753955 0.09750320850132876 0.0 0.446481184714091 0.09015443130842314 0.0 0.44564524810272066 -0.08989576921233712 0.0 0.3093742239403806 -0.0364754789765676 0.0 0.8428390885265271 -0.0596186693396955 0.0 0.3603873702953835 0.027639196139975647 0.0 1.212339697838096 0.09604082368271395 0.0 1.0153253315272852 0.11250560473733363 0.0 1.0445592657430065 -0.13519398299928545 0.0 -0.12121434240985667 -0.0010945797293089965 0.0 -0.1218043405339815 -0.012427929258632568 0.0 -0.2179391781679617 -0.0011690462751086873 0.0 -0.09429854705848095 0.022908362251812517 0.0 -0.1463425584834193 -0.010934128596284351 0.0 0.44890994359526526 -0.08297576842211005 0.0 1.2001958096467393 -0.13159988133940803 0.0 0.785106101943434 -0.11549179918788983 0.0 1.0179307476527886 -0.13860170998707202 0.0 -0.02309973130187131 0.0399697750189145 0.0 0.12318148006165287 -0.049553171790899714 0.0 0.04467709273805299 -0.030463055973972503 0.0 0.337689793131534 -0.0773815195514781 0.0 0.01861853224193912 -0.029990240417898287 0.0 1.1389943233104827 0.13068142040117162 0.0 -0.05575008765697689 0.0016479801716006285 0.0 0.04101074557406946 0.02275444774015466 0.0 -0.020373121011312684 0.002433154678362761 0.0 0.15379924495337274 -0.043026895397109556 0.0 0.43340999533569946 0.0646142198664979 0.0 0.8470231904377681 -0.12501334634444047 0.0 0.6710899730321647 -0.11259357659170344 0.0 0.9329890580985486 -0.12166853411272563 0.0 0.38610393182429414 -0.08106264148296942 0.0 0.9595736422669944 -0.13859602936288334 0.0 1.1809588412027843 -0.13590996436347627 0.0 1.1375431924462083 -0.13249763012172958 0.0 1.1250294769416354 -0.12386517475767442 0.0 0.7617714263940839 -0.12294604095666557 0.0 0.677445032475942 -0.11521017953954273 0.0 0.5661609218271715 -0.10122026185203395 0.0 0.5334550045956132 -0.09954163960060279 0.0 0.2623179718167788 -0.06600022113035224 0.0 0.93339544388773 -0.13512890573653336 0.0 0.3243223987689295 0.04510122219478662 0.0 0.7436048082470307 0.08318018228771042 0.0 0.06518414929798207 0.02714168072167718 0.0 0.22509515933150476 0.05371100029064562 0.0 -0.14330827544775596 0.011710309593577255 0.0 1.2288569167250183 0.013849283624648961 0.0 1.0794139780464043 0.06637617307934011 0.0 1.247397018076595 -0.049273507962892656 0.0 1.1856018090361204 -0.09598077636012345 0.0 0.30331428250317216 -0.06914813729520664 0.0 0.5368314808416642 -0.0923055151779074 0.0 0.7026158592917326 0.10055094178478305 0.0 0.11682106649527282 0.05021468646154783 0.0 1.1956690749745318 0.03715511717213833 0.0 1.2355663038876397 -0.06867081942777546 0.0 0.6806036832716403 0.11701312579375417 0.0 1.1894340739798652 -0.10924748088916132 0.0 0.7298985588037806 0.09420930840743401 0.0 1.2324830462589529 0.11400030197772 0.0 0.44418150261030503 0.08301238759072492 0.0 0.8537352798720328 0.12339537350843852 0.0 1.217670151774813 0.05851908490774986 0.0 1.0993725562624004 -0.05208034729847914 0.0 1.172820413647638 -0.11721548681931114 0.0 0.9610605331945753 0.11630213139825135 0.0 1.122703134092966 0.13218208262964715 0.0 1.1651618432177957 0.12201142617379576 0.0 1.1772979221674178 0.13548629345323426 0.0 1.146268906793643 0.14530408299348926 0.0 1.0723838319011347 0.13747328531692987 0.0 0.8222669009150464 0.12888347897241337 0.0 1.1020937578508638 -0.1138916378201785 0.0 0.0 0.0 0.0 1.1655247497618246 0.09001648932777671 0.0 1.021848944805849 0.14468659582054222 0.0 0.45139611651140904 0.09667926216928986 0.0 1.173529176878134 0.10622920850074155 0.0 1.0132556077524146 0.14321894245009306 0.0 1.196169718635933 0.13126444078751726 0.0 0.7551932868989802 0.1271804053766135 0.0 1.1569834508773849 0.13408200137076312 0.0 0.709789380377087 0.12375952898533878 0.0 0.37481792884157006 0.09145460102533595 0.0 1.1430091802172195 0.14497259086459588 0.0 0.816071290418311 0.1337573681138533 0.0 1.1016877761764208 0.1444166375330937 0.0 0.9656287247124014 0.14314517983246128 0.0 0.9098455045225816 0.13636032157330097 0.0 1.18917378895743 0.13650033087693944 0.0 1.147065719846469 0.14238093534591365 0.0 1.1530086380101248 0.11573423538163244 0.0 0.23728018336645174 0.07468041361369804 0.0 0.9292063037508967 0.08934645219808857 0.0 1.1490605001027114 0.1387815855893965 0.0 1.1285522055392365 0.13955389967957207 0.0 1.1016031811047668 0.11640043496283231 0.0 1.1188442819303914 0.1251302485297637 0.0 1.1264915105555409 0.11740756659041575 0.0 0.992164285757392 0.0857280093534634 0.0 1.0185491961833946 0.13137248979868665 0.0 1.0220930246195152 0.10292523239980882 0.0 1.1071126972888046 0.11622378449736505 0.0 0.815774378531675 0.07197524270009381 0.0 1.1121637638219286 0.12880967360275922 0.0 1.0772493150586409 0.12271294359798147 0.0 1.0844953791284382 0.13763109262086895 0.0 1.0279903965114425 0.10165648882758112 0.0 0.0 0.0 0.0 0.6487130346514159 -0.007177553221134399 0.0 1.0911259171058325 0.40957930454946373 0.0 1.1831938884437228 0.3862176496589378 0.0 1.0980603915958584 -0.4028076949823623 0.0 0.8595863811325726 -0.20712577155415365 0.0 0.9711965008144728 -0.2250033285659756 0.0 0.8937186239667383 -0.08351089804823335 0.0 1.2586308696434712 -0.01340548001927401 0.0 1.1644372683445217 -0.026665093116067923 0.0 1.2487969161730872 -0.05644986615739228 0.0 1.1783610375448381 -0.037866665902564024 0.0 1.2199094225391387 -0.011611607560683811 0.0 -0.1425245645553664 -0.01033817515602249 0.0 -0.13441854948602874 0.0217406715587102 0.0 -0.07473434584159172 0.019595277733951685 0.0 -0.07837740391587293 0.03730045465107973 0.0 0.06534948348481005 0.03494635690050847 0.0 -0.11614417577502316 0.0286238878450649 0.0 -0.039305311929917326 0.05642643406566605 0.0 0.08880827311671124 0.0439140059251212 0.0 -0.033386101549684 0.0690559172880357 0.0 -0.0818863890706426 0.045501430175758424 0.0 0.9882698388522898 0.11887373695911876 0.0 -0.12507127362369677 0.02376283171287505 0.0 1.1840349465313433 -0.13480913404107464 0.0 1.1608308680243855 -0.14201188167347775 0.0 1.0547320424684252 -0.14208841826076332 0.0 1.1335200792209044 -0.14341159375036192 0.0 1.1344297224176374 -0.12344107607689804 0.0 1.0244872302762826 -0.14132012273067368 0.0 1.1504389517745461 -0.13001749195593146 0.0 1.1108432292062644 -0.1401923586105909 0.0 1.1386520943515779 -0.14101976970047844 0.0 0.9849098144506433 -0.13068503401428824 0.0 1.0160025764258873 -0.13650209010202932 0.0 0.8025631218186635 -0.12168343215089461 0.0 1.1131314132887336 -0.13471759746198786 0.0 1.1176578149098746 -0.11496205761680546 0.0 1.0912034922139535 -0.12690357604579483 0.0 0.9496890998687606 -0.09051506953930677 0.0 1.1289235205930825 -0.124166519828795 0.0 0.8495122812567958 -0.1143164377863429 0.0 1.108723177908848 -0.11678213183658924 0.0 1.0245652309188304 -0.12084424475404457 0.0 0.810717124357249 -0.09853173233844842 0.0 0.953985155705657 -0.09381802580821785 0.0 0.887441820778795 -0.11003172979000048 0.0 0.4288688870676311 -0.0700202061506833 0.0 0.983990095431892 -0.10900367967497789 0.0 0.6674140700355374 -0.09271697187435696 0.0 1.0770246