<?xml version="1.0"?>
<VTKFile type="UnstructuredGrid"  version="0.1"  >
<UnstructuredGrid>
<Piece  NumberOfPoints="1289" NumberOfCells="2413">
<Points>
<DataArray  type="Float64"  NumberOfComponents="3"  format="ascii">0 0 0  0 0.41 0  2.2 0.41 0  2.2 0 0  0.1 0.1 0  0.1 0.3 0  0.8 0.3 0  0.8 0.1 0  0.25 0.2 0  0.248976 0.210065 0  0.245948 0.219718 0  0.241038 0.228563 0  0.234448 0.23624 0  0.226448 0.242432 0  0.217365 0.246888 0  0.207571 0.249423 0  0.197468 0.249936 0  0.187467 0.248404 0  0.17798 0.24489 0  0.169395 0.239539 0  0.162062 0.232569 0  0.156283 0.224265 0  0.152293 0.214968 0  0.150257 0.205058 0  0.150257 0.194942 0  0.152293 0.185032 0  0.156283 0.175735 0  0.162062 0.167431 0  0.169395 0.160461 0  0.17798 0.15511 0  0.187467 0.151596 0  0.197468 0.150064 0  0.207571 0.150577 0  0.217365 0.153112 0  0.226448 0.157568 0  0.234448 0.16376 0  0.241038 0.171437 0  0.245948 0.180282 0  0.248976 0.189935 0  1.1 0 0  1.1 0.41 0  0.1 0.2 0  0.45 0.1 0  0.45 0.3 0  0.55 0 0  0.275 0.1 0  0.275 0.3 0  0.275 0 0  0.55 0.41 0  0 0.205 0  0.825 0 0  0.825 0.41 0  0.275 0.41 0  0.1 0.15 0  0.1875 0.1 0  0.1 0.25 0  0.1875 0.3 0  0.132322 0.2 0  0.241426 0.253518 0  0.241426 0.146482 0  0.264574 0.17974 0  0.264574 0.22026 0  0.138434 0.187348 0  0.153372 0.150948 0  0.148413 0.164094 0  0.176495 0.136535 0  0.22768 0.143571 0  0.138434 0.212652 0  0.148413 0.235906 0  0.176495 0.263465 0  0.22768 0.256429 0  0.23125 0.3 0  0.24769 0.24094 0  0.23125 0.1 0  0.24769 0.15906 0  0.26253 0.193641 0  0.190482 0.137872 0  0.166753 0.146661 0  0.157737 0.244461 0  0.190482 0.262128 0  0.203107 0.261264 0  0.253635 0.22977 0  0.203107 0.138736 0  0.253635 0.17023 0  0.261028 0.206206 0  0.167707 0.251809 0  0.143629 0.224191 0  0.215302 0.2591 0  0.270465 0.245894 0  0.215302 0.1409 0  0.270465 0.154106 0  0.284052 0.202587 0  0.14375 0.3 0  0.209375 0.3 0  0.225966 0.278501 0  0.209375 0.1 0  0.225966 0.121499 0  0.211613 0.273759 0  0.211613 0.126241 0  0.143629 0.175809 0  0.1 0.175 0  0.133484 0.164832 0  0.144491 0.249539 0  0.1 0.225 0  0.133484 0.235168 0  0.3625 0.3 0  0.25691 0.253381 0  0.25691 0.146619 0  0.277205 0.188698 0  0.184724 0.275712 0  0.237372 0.268285 0  0.184724 0.124288 0  0.237372 0.131715 0  0.197578 0.273149 0  0.193656 0.286994 0  0.197578 0.126851 0  0.193656 0.113006 0  0.122953 0.187671 0  0.118362 0.153758 0  0.155372 0.258107 0  0.122953 0.212329 0  0.118362 0.246242 0  0.276394 0.27264 0  0.276394 0.12736 0  0.280965 0.170013 0  0.253125 0.3 0  0.14375 0.1 0  0.253125 0.1 0  0.269489 0.26014 0  0.269489 0.13986 0  0.303639 0.184297 0  0.165625 0.3 0  0.134742 0.273113 0  0.257831 0.274737 0  0.255279 0.128499 0  0.3625 0.1 0  0.165625 0.1 0  0.162031 0.132368 0  0.134955 0.126405 0  0.149334 0.125568 0  0.142936 0.139597 0  0.12695 0.140259 0  0.242514 0.285501 0  0.242514 0.114499 0  0.1 0.125 0  0.117483 0.12555 0  0.11154 0.139776 0  0.121875 0.1 0  0.109143 0.1125 0  0.126805 0.114 0  0.220313 0.29129 0  0.351562 0.287369 0  0.207222 0.2866 0  0.220312 0.10871 0  0.1375 0 0  0.20625 0 0  0.207222 0.1134 0  0.11722 0.17118 0  0.1 0.1625 0  0.0778409 0.16875 0  0.0862762 0.15625 0  0 0.15375 0  0 0.1025 0  0.11722 0.22882 0  0.1 0.2375 0  0 0.3075 0  0.0862762 0.23125 0  0.0598995 0.222547 0  0.0860223 0.2125 0  0.289584 0.181469 0  0.300267 0.16446 0  0.163832 0.269071 0  0.149597 0.273325 0  0.1 0.275 0  0.268498 0.285953 0  0.31875 0.3 0  0.294154 0.254672 0  0.296875 0.3 0  0.293558 0.271845 0  0.285095 0.286799 0  0.324298 0.264316 0  0.307866 0.263745 0  0.317093 0.234901 0  0.315485 0.281219 0  0.316547 0.250625 0  0.344693 0.243731 0  0.331592 0.251147 0  0.35129 0.270663 0  0.338689 0.263683 0  0.340625 0.3 0  0.249849 0.264383 0  0.265097 0.11422 0  0.284688 0.156136 0  0.242188 0.324017 0  0.0856613 0.2625 0  0.132812 0.0612217 0  0.264062 0.0612217 0  0.198437 0.07598340000000001 0  0.0860223 0.1375 0  0.0794526 0.191089 0  0.285228 0.140397 0  0.298655 0.148737 0  0.31875 0.1 0  0.327335 0.15374 0  0.296875 0.1 0  0.312289 0.155283 0  0.313348 0.135607 0  0.321802 0.173916 0  0.298433 0.134116 0  0.112124 0.2625 0  0.127526 0.259083 0  0.121875 0.3 0  0.0682687 0.241503 0  0.1 0.2875 0  0.117762 0.28125 0  0.107813 0.3 0  0.103906 0.313849 0  0.0778409 0.28125 0  0.1375 0.41 0  0.0862762 0.29375 0  0.08886860000000001 0.24375 0  0.307812 0.338778 0  0.307812 0.292227 0  0.33216 0.279164 0  0.387888 0.266414 0  0.264063 0.31948 0  0.110937 0.07598340000000001 0  0.242188 0.07598340000000001 0  0.319914 0.11839 0  0.340625 0.1 0  0.334448 0.133793 0  0.329687 0.108539 0  0.346259 0.118491 0  0.360334 0.173636 0  0.327539 0.205033 0  0.132812 0.288712 0  0.362436 0.278836 0  0.368105 0.259418 0  0.4125 0.41 0  0.329687 0.324017 0  0.329687 0.292306 0  0.285938 0.318952 0  0.417187 0.338778 0  0.324481 0.14148 0  0.351562 0.106771 0  0.40625 0.1 0  0.341028 0.168342 0  0.319221 0.190479 0  0.335292 0.184501 0  0.305563 0.20794 0  0.220313 0.31948 0  0.132812 0.332772 0  0.0865876 0.311259 0  0.0598995 0.302453 0  0.0906541 0.343255 0  0.353543 0.255837 0  0.36574 0.237633 0  0.405007 0.254279 0  0.275795 0.352123 0  0.4125 0 0  0.35493 0.137394 0  0.366563 0.120618 0  0.35917 0.205246 0  0.198438 0.318952 0  0.0626109 0.263892 0  0.40625 0.3 0  0.354809 0.155936 0  0.386512 0.146872 0  0.373101 0.159939 0  0.384375 0.1 0  0.343394 0.19929 0  0.350682 0.185683 0  0.368101 0.189748 0  0.344016 0.221511 0  0.391108 0.213329 0  0.376279 0.204783 0  0.398843 0.182768 0  0.375804 0.222746 0  0.390665 0.196958 0  0.394004 0.23518 0  0.359883 0.222828 0  0.419908 0.204359 0  0.404243 0.204783 0  0.412615 0.224526 0  0.20625 0.41 0  0.165625 0.325257 0  0.0347982 0.244954 0  0.379558 0.247154 0  0.34165 0.147603 0  0.372264 0.136992 0  0.388988 0.121989 0  0.373437 0.108554 0  0.351562 0.31948 0  0.391367 0.16527 0  0.399572 0.223324 0  0.452011 0.227371 0  0.40877 0.239392 0  0.431491 0.237337 0  0.421224 0.250459 0  0.449619 0.262098 0  0.418865 0.276779 0  0.437063 0.252274 0  0.415673 0.263227 0  0.430988 0.266772 0  0.402767 0.273419 0  0.452967 0.244883 0  0.428125 0.3 0  0.408502 0.286186 0  0.384375 0.3 0  0.392267 0.285807 0  0.465927 0.219339 0  0.43489 0.283846 0  0.376424 0.286289 0  0.625 0.3 0  0.473533 0.205186 0  0.461713 0.255517 0  0.5375 0.3 0  0.465725 0.235405 0  0.44631 0.201425 0  0.471875 0.3 0  0.494307 0.227729 0  0.459448 0.206736 0  0.462294 0.180792 0  0.478933 0.227536 0  0.486793 0.21381 0  0.486322 0.251373 0  0.50065 0.215318 0  0.54005 0.175389 0  0.474633 0.189893 0  0.512916 0.208697 0  0.49531 0.199967 0  0.475889 0.175275 0  0.625 0.1 0  0.459311 0.153933 0  0.513645 0.242704 0  0.392892 0.248539 0  0.374815 0.271913 0  0.365974 0.14871 0  0.395312 0.109184 0  0.417061 0.123981 0  0.483196 0.277003 0  0.381967 0.179632 0  0.429898 0.219374 0  0.433473 0.206165 0  0.43149 0.181038 0  0.444208 0.215487 0  0.472985 0.247309 0  0.49375 0.3 0  0.475579 0.262714 0  0.49916 0.274293 0  0.501175 0.184809 0  0.514164 0.225681 0  0.543648 0.214977 0  0.5341630000000001 0.23481 0  0.527396 0.216171 0  0.5375 0.1 0  0.534548 0.202315 0  0.561545 0.192513 0  0.5494289999999999 0.201221 0  0.570923 0.218346 0  0.412582 0.149833 0  0.489327 0.264745 0  0.502439 0.254775 0  0.462391 0.271166 0  0.496775 0.241732 0  0.5294410000000001 0.268606 0  0.482812 0.291099 0  0.46879 0.285038 0  0.452663 0.284065 0  0.51789 0.257882 0  0.53408 0.252026 0  0.560142 0.243543 0  0.545708 0.243474 0  0.547532 0.229019 0  0.55282 0.265323 0  0.398971 0.153424 0  0.400349 0.135684 0  0.410135 0.168145 0  0.428823 0.161323 0  0.415266 0.183779 0  0.329687 0.0810483 0  0.395312 0.0612217 0  0.373437 0.318952 0  0.439062 0.324017 0  0.561816 0.229354 0  0.585029 0.239287 0  0.431827 0.139854 0  0.446796 0.168929 0  0.351562 0.07598340000000001 0  0.395313 0.318944 0  0.54337 0.150762 0  0.460937 0.31948 0  0.418412 0.137529 0  0.428125 0.1 0  0.442783 0.152332 0  0.450742 0.134294 0  0.373437 0.0805201 0  0.384383 0.342558 0  0.482812 0.318952 0  0.429239 0.127457 0  0.444274 0.117405 0  0.426548 0.113815 0  0.49375 0.1 0  0.488954 0.113984 0  0.457973 0.121842 0  0.471621 0.137346 0  0.515625 0.325257 0  0.48125 0.41 0  0.417187 0.07598340000000001 0  0.496363 0.126778 0  0.479043 0.155715 0  0.439062 0.0805201 0  0.481795 0.126919 0  0.471875 0.1 0  0.489227 0.142159 0  0.515625 0.1 0  0.520062 0.147117 0  0.501244 0.161791 0  0.505431 0.112984 0  0.505344 0.14029 0  0.526563 0.119081 0  0.5181750000000001 0.131908 0  0.539868 0.136937 0  0.460937 0.108383 0  0.474242 0.114415 0  0.460937 0.0810483 0  0.487841 0.167168 0  0.526563 0.0612217 0  0.526563 0.106406 0  0.537619 0.112743 0  0.58125 0.1 0  0.559375 0.1 0  0.482812 0.08105569999999999 0  0.471883 0.0587655 0  0.570312 0.129396 0  0.548437 0.07598340000000001 0  0.504687 0.08105569999999999 0  0.49375 0.0470127 0  0.570312 0.112663 0  0.592798 0.12103 0  0.553986 0.12103 0  0.570312 0.0805201 0  0.48125 0 0  0.114787 0.2 0  0.160769 0.284765 0  0.175816 0.288361 0  0.162602 0.116048 0  0.154687 0.07598340000000001 0  0.176562 0.0805201 0  0.0598995 0.147547 0  0.307812 0.109924 0  0.291279 0.117157 0  0.278491 0.112989 0  0.285937 0.07598340000000001 0  0.307812 0.0805201 0  0.296928 0.196743 0  0.318141 0.218507 0  0.330208 0.227509 0  0.301397 0.225668 0  0.302706 0.241401 0  0.292574 0.21424 0  0.282762 0.230935 0  0.284351 0.244775 0  0.269553 0.23261 0  0.278572 0.217242 0  0.226924 0.342606 0  0.446928 0.185396 0  0.515625 0.3 0  0.504687 0.288879 0  0.515256 0.276534 0  0.529479 0.285328 0  0.58125 0.3 0  0.541969 0.272936 0  0.559375 0.3 0  0.556796 0.282529 0  0.543473 0.287206 0  0.581429 0.267774 0  0.566728 0.271171 0  0.570869 0.255585 0  0.577404 0.283865 0  0.603125 0.3 0  0.597531 0.28035 0  0.570312 0.338778 0  0.592188 0.292492 0  0.603513 0.256094 0  0.614063 0.286265 0  0.610329 0.27064 0  0.632708 0.251285 0  0.657223 0.261594 0  0.618789 0.257807 0  0.614188 0.22987 0  0.630935 0.265614 
[...]
<PointData  Vectors="v"> 
	<DataArray  type="Float64"  Name="v"  NumberOfComponents="3" format="ascii">
0.0 0.0 0.0 0.0 0.0 0.0 0.0 0.0 0.0 0.0 0.0 0.0 0.7973782454294239 -0.18884293198768892 0.0 0.8413391086508625 0.19863404323391412 0.0 1.023996678610469 -0.03585497835753669 0.0 0.9692616425991164 0.024411205207942214 0.0 0.0 0.0 0.0 0.0 0.0 0.0 0.0 0.0 0.0 0.0 0.0 0.0 0.0 0.0 0.0 0.0 0.0 0.0 0.0 0.0 0.0 0.0 0.0 0.0 0.0 0.0 0.0 0.0 0.0 0.0 0.0 0.0 0.0 0.0 0.0 0.0 0.0 0.0 0.0 0.0 0.0 0.0 0.0 0.0 0.0 0.0 0.0 0.0 0.0 0.0 0.0 0.0 0.0 0.0 0.0 0.0 0.0 0.0 0.0 0.0 0.0 0.0 0.0 0.0 0.0 0.0 0.0 0.0 0.0 0.0 0.0 0.0 0.0 0.0 0.0 0.0 0.0 0.0 0.0 0.0 0.0 0.0 0.0 0.0 0.0 0.0 0.0 0.0 0.0 0.0 0.0 0.0 0.0 0.0 0.0 0.0 0.0 0.0 0.0 0.7648498000106632 -0.0023678900713903946 0.0 1.2164220250418922 0.12179866069631096 0.0 1.2279171125960902 -0.12114461833858707 0.0 0.0 0.0 0.0 1.3012270216218444 -0.07567378307249921 0.0 1.3159442405852162 0.09159474803634854 0.0 0.0 0.0 0.0 0.0 0.0 0.0 1.0 0.0 0.0 0.0 0.0 0.0 0.0 0.0 0.0 0.0 0.0 0.0 0.8469906081742217 -0.22908338065230768 0.0 1.1542914494363368 -0.3017160245460715 0.0 0.8681403282884231 0.22454872674473125 0.0 1.1692368767999106 0.30897308500387455 0.0 0.4321104082878957 -0.005354838845700017 0.0 0.16536202071509573 0.02749298117994371 0.0 0.1717043778318583 -0.023116892715367047 0.0 -0.04700740401660167 -0.0625586333949311 0.0 -0.04926244277167074 0.06550068139966583 0.0 0.33813527930569487 -0.28301585321145245 0.0 0.8734497259952231 -0.6726302970063925 0.0 0.6510811956680563 -0.6944350485342398 0.0 1.2433377182683527 -0.6027134181246264 0.0 0.3034046536648442 0.0030689306998256277 0.0 0.3339502022629684 0.2689575618171869 0.0 0.6527581605184055 0.6723712032711402 0.0 1.2211902213544732 0.6034306862087956 0.0 0.290445565796145 0.00096016158591896 0.0 1.2834743583462833 0.19354803501056528 0.0 -0.0203920888279196 0.054553478492508724 0.0 1.272361014917417 -0.17545709490854564 0.0 -0.017120386880173376 -0.053088350306314674 0.0 -0.03603021863788117 -0.024460613273453637 0.0 1.224500083729872 -0.3985205525671618 0.0 1.1284474758823915 -0.7306266344260983 0.0 0.8712235475090095 0.7777035004754517 0.0 1.2315173279512275 0.3989589584486963 0.0 0.9096291341777673 0.1647355465945223 0.0 -0.03769265745390563 0.06957999756792549 0.0 0.9175679172967804 -0.1604749812118537 0.0 -0.03836177294332319 -0.06809519251055637 0.0 -0.030651648810016467 0.023642415685722246 0.0 1.0609153344653028 0.7281987968625118 0.0 0.44805330440343105 0.5318927853958642 0.0 0.5369480516533263 0.03205725555492561 0.0 0.07546070071947399 0.05015687545899639 0.0 0.5455104597669584 -0.030697505736413066 0.0 0.08165955476177746 -0.04937821392581567 0.0 -0.11075418176210104 0.008060033589925509 0.0 0.9693403445948482 0.2980562676329833 0.0 1.2530629777375284 0.2459972945656467 0.0 1.2961216552297472 0.2039416740653332 0.0 1.2254605004482493 -0.24377472667192815 0.0 1.2922478421398493 -0.1966922293014686 0.0 1.3048658723739257 0.2542957904337389 0.0 1.3071935494971672 -0.24632336812614752 0.0 0.449735441695406 -0.5505356854257645 0.0 0.8058567167008589 -0.13918378080781707 0.0 0.679144687701491 -0.41950726907431823 0.0 0.8914902734596375 0.5915850656321961 0.0 0.803248699164907 0.14029772200357443 0.0 0.6845171705327051 0.4181392996478309 0.0 1.280821176619754 -0.047593766798580725 0.0 0.19175546505615124 0.03389524415445001 0.0 0.2081682710773874 -0.027138919631583 0.0 -0.08477229551224101 -0.034271016734846775 0.0 1.3026740366899692 0.428152397689667 0.0 0.8771501030585057 0.06776797216727921 0.0 1.2971633621846728 -0.43341776525756204 0.0 0.8946291695157803 -0.060358365410168556 0.0 1.3330983253415711 0.35999534525940685 0.0 1.2708588346134022 0.3458178773365349 0.0 1.3279067662733461 -0.35744566616100354 0.0 1.2609148947166111 -0.3266873061996715 0.0 0.5883794357256612 -0.16168670481799546 0.0 0.8031725944870279 -0.3296264719628137 0.0 1.031700880845616 0.5963621625908211 0.0 0.5964044271051253 0.14916977839459933 0.0 0.8191560228669053 0.32743951747282046 0.0 0.8747001120381985 0.036539235536516 0.0 0.901864908852648 -0.02613749750227347 0.0 -0.038934354210795136 -0.05770720216569008 0.0 1.310223527886145 0.13490740627203265 0.0 0.9339324504861382 -0.3051309610497662 0.0 1.2913852480740142 -0.11928986587659911 0.0 0.4094749793747842 0.02806620683318676 0.0 0.4377783535291394 -0.017846432517357288 0.0 -0.12575324448601505 -0.02683469698386043 0.0 1.0627281173313472 0.3230713544177706 0.0 0.9527741079513408 0.3798031900612415 0.0 1.0293526730920917 0.07103291017206799 0.0 0.9224878261711117 -0.048203378542714066 0.0 1.2727013933283122 0.052278553238400645 0.0 1.0330884828807576 -0.31776824941980053 0.0 1.0979797551983959 -0.5578191178827153 0.0 0.9400716878315027 -0.37949499315431345 0.0 1.0118992678220327 -0.4245319223504576 0.0 0.9471750592495896 -0.5377102325689289 0.0 0.8743350910008559 -0.40135872355284974 0.0 1.3106370311026705 0.15713145611883103 0.0 1.3011941366935076 -0.1468129366637162 0.0 0.8561202618200682 -0.23017043031544387 0.0 0.8849634600494075 -0.3025740610954348 0.0 0.8586669721038133 -0.29440847050589436 0.0 0.8534281750489658 -0.24537731169277152 0.0 0.8574230134579726 -0.24463428383600752 0.0 0.9019850349978756 -0.3086506096319973 0.0 1.3164468955934796 0.2280017161626641 0.0 1.1761724906419126 -0.04088074170834966 0.0 1.3277196262202042 0.2886015986631212 0.0 1.3065069285251567 -0.20983424044105228 0.0 0.0 0.0 0.0 0.0 0.0 0.0 1.309924144459066 -0.2767287999058804 0.0 0.7197314785823824 -0.26741597507191994 0.0 0.8244795087875826 -0.20923553639722148 0.0 0.8736807186066076 -0.10968265701918514 0.0 0.8655104462169695 -0.16176592809194298 0.0 0.9375 0.0 0.0 0.7500000000000001 0.0 0.0 0.727698875645534 0.26312286024179865 0.0 0.8282826467373313 0.19673855709779964 0.0 0.7499999999999999 0.0 0.0 0.8726449774209187 0.12495112835025105 0.0 0.930179860497469 0.04113908796971321 0.0 0.8509533198852138 0.043456796009139965 0.0 -0.09478369840261017 -0.03968365888344468 0.0 0.00881341311682259 -0.03875492964720985 0.0 1.138601390247203 0.5376389498952999 0.0 1.0332968790504233 0.45889473055192326 0.0 0.8840287915449963 0.2381384762134935 0.0 1.2514773717017378 0.08605199465741571 0.0 1.3037347200957696 0.01495130343821786 0.0 0.28983436822941394 0.021387975973719112 0.0 1.317073183331195 0.05041624824707916 0.0 0.8217706608681064 0.0156953301690562 0.0 1.2319739306904722 0.05522793588135119 0.0 0.5892024227938528 -0.010963995385581942 0.0 0.5528453691132814 0.004196861334985307 0.0 0.0006157662146209615 0.030751218256928625 0.0 1.0772888620296812 0.0008101305399299347 0.0 0.23586414722287577 0.015419103273156752 0.0 0.14838820029365143 0.005608950987087 0.0 0.2684048727200444 0.005645737644986896 0.0 0.7952709422227373 -0.03931897551838111 0.0 0.5863426278170569 -0.020695913536136614 0.0 1.2985000542129095 -0.020245548205265723 0.0 0.6058752175951031 0.029660971086219054 0.0 1.2611436125704998 -0.08493131466051967 0.0 0.08736321202159052 -0.04185494009993448 0.0 1.152231428836199 0.11551803836600522 0.0 0.8854224295995273 0.1745927600110857 0.0 0.6959250862785877 -0.15601585258848855 0.0 1.0454206832517776 -0.057606870718032 0.0 1.0176093494557144 -0.18403873248714675 0.0 0.8664271877382889 -0.1790091728878797 0.0 0.8778799329858393 -0.02605453112259085 0.0 0.43157582296762154 -0.01448969454595492 0.0 0.23855535826135613 -0.01941763519411589 0.0 1.2911700690978083 0.0009940414057199524 0.0 0.1867789932145197 -0.008236628202693828 0.0 1.3024401287359597 -0.035818965378461624 0.0 0.13945002267519163 -0.020747257467587193 0.0 0.6070267306279701 0.013686767714584233 0.0 -0.07489706331853488 -0.024735266215571827 0.0 0.6404206414863569 0.0017467079061492122 0.0 0.8845608384058472 0.2902222655087325 0.0 0.8881236095778486 0.404124535554822 0.0 0.8867067804869553 0.25694596451942636 0.0 0.9141241662748965 0.106888913189966 0.0 0.8672984276563865 0.21466129155147004 0.0 0.909403995306073 0.2933901630537786 0.0 0.8585029617091098 0.223027245540956 0.0 0.8016863222524965 0.1734262164016947 0.0 0.868351921226907 0.15584758024225168 0.0 0.0 0.0 0.0 0.8423652860262286 0.169571374312879 0.0 0.8738680384827111 0.16724053157062363 0.0 1.120595771667365 0.01329531908148117 0.0 1.2704383578100567 0.0231805289916384 0.0 1.0160817745002275 -0.020341263586322954 0.0 0.7308468574104443 -0.06776978190002302 0.0 1.215175750625214 0.08962739407758429 0.0 0.7160684187996205 -0.1645312592902999 0.0 1.1238563087809332 -0.11076943409579892 0.0 1.098793003867434 0.012953843084802514 0.0 1.2854380898196702 0.029544756238035555 0.0 0.684558210720119 0.03154298501700043 0.0 1.2484726264886334 0.020541841956790288 0.0 1.0883610819611311 0.04408670054123086 0.0 -0.06806612622900893 -0.0070465374931732265 0.0 -0.1934250101326173 0.007391686733359836 0.0 0.950582692800565 0.3265162163295643 0.0 1.0124443157207916 -0.05659053040723773 0.0 0.5197501000794954 -0.03832268560349814 0.0 0.0 0.0 0.0 1.2237238842582443 -0.0041568495555482105 0.0 1.2559989089589105 -0.013269185142429456 0.0 1.2354446887704411 0.060239211201294524 0.0 1.1053262293095703 -0.07404315495669495 0.0 0.4533183260124955 0.008439372447934277 0.0 1.2469978736275615 0.046783529445930484 0.0 1.2481385130726037 0.09290661100491648 0.0 -0.014302370362859237 -0.013603136164822113 0.0 -0.16920378902243052 -0.012709555402098683 0.0 -0.15865385994941986 -0.014531336053179609 0.0 -0.15506416241844304 0.015724035847296345 0.0 1.1529051273908395 0.16545930950900645 0.0 0.7733158103763632 0.18328116341467468 0.0 0.7777727426084478 0.14670879944074122 0.0 0.7859498209445107 0.10242144742276924 0.0 0.6180248405234822 0.10410432551122917 0.0 0.40917666891664844 -0.019913612950990606 0.0 0.07320604384792909 -0.003361325806179883 0.0 0.46667535998986404 -0.060743024137510926 0.0 0.9919991962043105 0.04277543269912149 0.0 0.0 0.0 0.0 0.6130876982545136 0.04125240766078643 0.0 1.044238705245903 0.06536736666934118 0.0 -0.22384262511465577 0.0028119613585493915 0.0 1.0805114923685106 0.2214159497836121 0.0 0.9013930415285674 0.1086823265143418 0.0 1.2599884571250384 -0.09273797787980809 0.0 0.18786566782281594 0.007381971098909541 0.0 0.43441866880596985 0.046588673258987426 0.0 0.14349808058514452 0.012524820167166552 0.0 1.2637017248176918 0.07510244936844074 0.0 -0.2151371265497511 -0.00039702750286271923 0.0 -0.17453347469068173 -0.009876745048656604 0.0 -0.20522917321766945 -0.005651201585567816 0.0 -0.12827949043572193 0.015780135638406464 0.0 -0.19664932510898242 -0.0034488851351350508 0.0 -0.23336257265212243 -0.0001411950285521277 0.0 -0.14802149703227585 0.0009378371803443351 0.0 -0.11728160459358208 0.000604627616289774 0.0 -0.2363137977302478 -0.003823360641335615 0.0 0.06631070804698441 -0.018834731569908884 0.0 -0.11794671508564902 0.008910930363425586 0.0 -0.23100224216749607 -0.009031046500119341 0.0 -0.23583090772483212 -0.00615538627018454 0.0 -0.0723636316146751 -0.019583184764071115 0.0 0.0 0.0 0.0 0.9378396644031689 0.22892758531667712 0.0 0.9517347620367674 0.03864856249039932 0.0 0.2638177846065624 -0.026182080671342277 0.0 0.3341462536301389 0.011936168769747377 0.0 0.6530504981312861 0.05502906498975865 0.0 1.0288656629727237 0.08363260491084615 0.0 1.2238981810014014 0.07082408252483083 0.0 1.2500111997160888 -0.026823845981752928 0.0 0.07942633100043045 0.014999762681343634 0.0 -0.09806780020250247 -0.011197075936976037 0.0 0.022526771548290164 -0.04382590386697408 0.0 0.1616694546942423 -0.03606998083516542 0.0 0.16206575318403785 -0.04862174348665801 0.0 0.41253768976102145 -0.06618823729764674 0.0 0.73076737918303 -0.10974925855309052 0.0 1.0008829037903357 -0.10560983059304525 0.0 0.4860919782147499 -0.08205664319210575 0.0 0.6987701923446743 -0.08630446648157063 0.0 0.8054927927695977 -0.10389078634726565 0.0 0.9184491246095633 -0.09025370703617573 0.0 0.35638496645524864 -0.07692892110361046 0.0 1.2443099223623577 -0.10853715266558846 0.0 1.150182113416343 -0.10068854415452684 0.0 1.2731098749384764 -0.07100658403571555 0.0 1.1472287203709828 -0.08548238768003509 0.0 -0.07119475154288321 -0.03583508259093564 0.0 1.123100981449259 -0.12018694589240622 0.0 1.155984244803569 -0.0719034599793912 0.0 1.1062761055187484 -0.0988528419811018 0.0 -0.17291293389433093 -0.01532369449653195 0.0 0.6063702978793553 -0.1034355818709628 0.0 1.1611801399185544 -0.12899626704945516 0.0 0.18965406233984233 -0.06476454527235864 0.0 -0.21417843327335342 -0.009382238877654504 0.0 1.2110277076306677 -0.1286391173608086 0.0 0.10760919212573451 -0.059425894292762 0.0 -0.18809025043356747 -0.016811389726215653 0.0 -0.04548608607425207 0.023762418753549775 0.0 0.07245948095504963 -0.05486283529629898 0.0 -0.09684284292497333 -0.03094639946644711 0.0 0.5653542597810272 -0.1062498772215824 0.0 -0.05527536201145716 -0.035228029077531274 0.0 0.21920550226862126 0.06388290645217864 0.0 -0.1264598666430661 0.009786613807580889 0.0 -0.08457366869046623 -0.021814175287909195 0.0 -0.13944452742544655 -0.005501807660960693 0.0 0.06551419477725563 0.03987254992630213 0.0 1.0661691379162945 0.10175937403484339 0.0 0.44209399471273 0.07982862284327875 0.0 0.4372122745122122 -0.09443937049060593 0.0 0.31658921173839016 -0.03986166140488579 0.0 0.8496052155093831 -0.06176930901055202 0.0 0.353869871793925 0.027725601864172226 0.0 1.209069757670572 0.09175424964948768 0.0 1.0091111479142523 0.1064840441580787 0.0 1.0416448701821184 -0.1380079911864908 0.0 -0.12446068350532809 -0.0020541053869108485 0.0 -0.11904162141992981 -0.02262124697365345 0.0 -0.21687598890307744 -0.012253620655931968 0.0 -0.09738132933212897 0.01252816709077801 0.0 -0.14439366607536566 -0.02364444031944961 0.0 0.4500492043235845 -0.09291342543561938 0.0 1.1940488231380109 -0.13052221346604415 0.0 0.7858000456105564 -0.12206863278670921 0.0 1.0127942759688318 -0.1392641088600684 0.0 -0.018655899035885055 0.027938825399045027 0.0 0.11498323710295215 -0.05784220448900633 0.0 0.034698318189650273 -0.03274516607045972 0.0 0.3238268476613356 -0.07868651517454417 0.0 0.010643012310460026 -0.03694084097238372 0.0 1.1448449548362154 0.13647139940260972 0.0 -0.056222099348838955 -0.00447306146440451 0.0 0.04946604557861442 0.025724502906345568 0.0 -0.01990972344609311 0.0010010932920680611 0.0 0.1382866822893624 -0.03669782917477838 0.0 0.42505487792663926 0.05818727476772857 0.0 0.8445466139782438 -0.12912860519291314 0.0 0.6659595393964821 -0.11645220793925967 0.0 0.9348896530762707 -0.12791794676219334 0.0 0.3817537974185316 -0.0892886551939019 0.0 0.9496976492325127 -0.13411004813342103 0.0 1.176040590598204 -0.1368426448749652 0.0 1.1353468505931146 -0.1359328891495454 0.0 1.1253020355675296 -0.12875459359881808 0.0 0.7530242138943528 -0.12268745855567142 0.0 0.664813735940851 -0.11261959069265283 0.0 0.5472896533638019 -0.0938574061344127 0.0 0.517326966157915 -0.09561050120686064 0.0 0.2462177752330762 -0.0648443675125126 0.0 0.9205554688031052 -0.1268974527577066 0.0 0.31664542821895153 0.04073036637906276 0.0 0.7349215407047882 0.07833224997085239 0.0 0.05974779451955804 0.020822620806883914 0.0 0.21884192487198223 0.04457320456459123 0.0 -0.14611630213645418 0.004637052654131163 0.0 1.2277248438176809 0.012998981664370074 0.0 1.0803828284831698 0.06446973884126177 0.0 1.2481024122135644 -0.05151039839437773 0.0 1.182567267881989 -0.09809634743715281 0.0 0.28433976192252985 -0.06377897916077224 0.0 0.5147006641981893 -0.08082437773580611 0.0 0.6947056256107501 0.09264908298504004 0.0 0.11298674995543022 0.0386132604928333 0.0 1.1949144798805589 0.03572018778150649 0.0 1.2353327179930316 -0.0714501828443072 0.0 0.6939272114667243 0.12155044807217856 0.0 1.1852042670178937 -0.11029626766882512 0.0 0.7214117715652831 0.0873792247665757 0.0 1.2333903612450878 0.1099935221776229 0.0 0.43769762192196227 0.07322876292995224 0.0 0.8486697014160669 0.11574275241270207 0.0 1.2172266739057667 0.056286782005821705 0.0 1.0989891562396885 -0.053705193028504114 0.0 1.167683631849163 -0.11660328875356679 0.0 0.9549841361012581 0.10960754234644564 0.0 1.121335986457761 0.1265665327192914 0.0 1.1627008444023452 0.11648140040970636 0.0 1.1835296685120384 0.13647267500982443 0.0 1.151280445330973 0.14469985217197046 0.0 1.071597913372048 0.13216914988793552 0.0 0.8203860380822918 0.12214264773967905 0.0 1.0975562555863707 -0.11061115399117373 0.0 0.0 0.0 0.0 1.1675282223759487 0.08733915838818472 0.0 1.026190206159297 0.14361367356064159 0.0 0.4507822651329552 0.08710207103619674 0.0 1.1766993541773443 0.10386105490746608 0.0 1.01522441781951 0.1397914799254645 0.0 1.2010290087531477 0.12983075619922832 0.0 0.7565416045795639 0.12182657088298665 0.0 1.163568970399486 0.13780991223676994 0.0 0.7179712953089903 0.12352010977535569 0.0 0.37956423799943206 0.08392135349164034 0.0 1.1496395854990211 0.14692584491268615 0.0 0.8210319093426043 0.13172343028267566 0.0 1.1094884417962219 0.149313213372298 0.0 0.9730481724561597 0.14548740173452007 0.0 0.9205405320643872 0.14220050827232494 0.0 1.1920172090178303 0.13316723826477952 0.0 1.1504744310197734 0.13970804094756525 0.0 1.1574782132923362 0.11446412283776157 0.0 0.23932431152638833 0.06368901623556258 0.0 0.9320733853083374 0.09255612958655872 0.0 1.1559424878236084 0.14389745639755516 0.0 1.1358301038443108 0.14606837688782517 0.0 1.1036461928585004 0.12395650678225696 0.0 1.1233787893774474 0.13250593142384295 0.0 1.1317503653750631 0.11783229031754903 0.0 0.9964231355948666 0.08596592863041488 0.0 1.0284272667473175 0.1414034048971381 0.0 1.024671379231159 0.10797386209135688 0.0 1.1125415351000119 0.11847965937416702 0.0 0.8191759269107963 0.07331640823725467 0.0 1.1175182597827722 0.13764799367537306 0.0 1.082503385096257 0.1325133103956299 0.0 1.092756143864281 0.14605032013898592 0.0 1.0291760597908173 0.10735109257106604 0.0 0.0 0.0 0.0 0.6487144834633592 -0.0067701349753258935 0.0 1.0913557942803012 0.4098638421282457 0.0 1.1834458256742615 0.3864861666854231 0.0 1.097800650907949 -0.40253763452842284 0.0 0.8593876093913357 -0.20695543033282005 0.0 0.9709344546609726 -0.22481342030029652 0.0 0.8936925870424106 -0.08336978737287569 0.0 1.2568872740754773 -0.013071723003447331 0.0 1.1634101969459716 -0.025985931614850532 0.0 1.2480190782445497 -0.05589350304037382 0.0 1.1775563833691611 -0.037897669202547175 0.0 1.2189160949187878 -0.01192288428903666 0.0 -0.1427813617584429 -0.0064104033662958785 0.0 -0.13297174009809523 0.025982198413534968 0.0 -0.07223388644539062 0.02345254918092429 0.0 -0.07684084719051469 0.04105925789246473 0.0 0.06730207575735601 0.03808866950947139 0.0 -0.11539492452652172 0.03227703541101198 0.0 -0.03817020163150912 0.05936043287184427 0.0 0.0897967968143923 0.046201063974880906 0.0 -0.032834329088330644 0.07119806279323858 0.0 -0.0813051048106952 0.048555527681901085 0.0 0.9886656642833708 0.11900211909323642 0.0 -0.12691298272412005 0.010708614787288864 0.0 1.1774065815009003 -0.13088451638437154 0.0 1.1541617649552618 -0.13992889786336118 0.0 1.0471618369144136 -0.13943154289861037 0.0 1.1254929357545436 -0.13768567208525184 0.0 1.1322912259518865 -0.1153021727340919 0.0 1.0141856904878443 -0.1342375923425173 0.0 1.1460669950296738 -0.12204925398591052 0.0 1.1026111898446018 -0.13112672971043782 0.0 1.1309466815033278 -0.13347517112603022 0.0 0.9727049618465018 -0.11927618594009548 0.0 1.004785889494828 -0.12610220512263476 0.0 0.7856147401414055 -0.11124129499519957 0.0 1.1066710279036749 -0.12454986587760276 0.0 1.118282976036199 -0.10773005427851103 0.0 1.0859015504809055 -0.11670871597269081 0.0 0.9502949996886276 -0.08614852903166308 0.0 1.126678634935523 -0.11521144584256075 0.0 0.8333747976914246 -0.10171223822898005 0.0 1.1076322530856801 -0.10875937417275582 0.0 1.0165543891655398 -0.11019497219746435 0.0 0.7963672750708585 -0.08719461397721624 0.0 0.9497045338506701 -0.08852066117965264 0.0 0.8740258612541627 -0.09838465842233148 0.0 0.4073714978323062 -0.055047908586705836 0.0 0.9766579707130673 -0.09996978223641113 0.0 0.6479080463120346 -0.07912514753354076 0.0 1