<?xml version="1.0"?>
<VTKFile type="UnstructuredGrid"  version="0.1"  >
<UnstructuredGrid>
<Piece  NumberOfPoints="1289" NumberOfCells="2413">
<Points>
<DataArray  type="Float64"  NumberOfComponents="3"  format="ascii">0 0 0  0 0.41 0  2.2 0.41 0  2.2 0 0  0.1 0.1 0  0.1 0.3 0  0.8 0.3 0  0.8 0.1 0  0.25 0.2 0  0.248976 0.210065 0  0.245948 0.219718 0  0.241038 0.228563 0  0.234448 0.23624 0  0.226448 0.242432 0  0.217365 0.246888 0  0.207571 0.249423 0  0.197468 0.249936 0  0.187467 0.248404 0  0.17798 0.24489 0  0.169395 0.239539 0  0.162062 0.232569 0  0.156283 0.224265 0  0.152293 0.214968 0  0.150257 0.205058 0  0.150257 0.194942 0  0.152293 0.185032 0  0.156283 0.175735 0  0.162062 0.167431 0  0.169395 0.160461 0  0.17798 0.15511 0  0.187467 0.151596 0  0.197468 0.150064 0  0.207571 0.150577 0  0.217365 0.153112 0  0.226448 0.157568 0  0.234448 0.16376 0  0.241038 0.171437 0  0.245948 0.180282 0  0.248976 0.189935 0  1.1 0 0  1.1 0.41 0  0.1 0.2 0  0.45 0.1 0  0.45 0.3 0  0.55 0 0  0.275 0.1 0  0.275 0.3 0  0.275 0 0  0.55 0.41 0  0 0.205 0  0.825 0 0  0.825 0.41 0  0.275 0.41 0  0.1 0.15 0  0.1875 0.1 0  0.1 0.25 0  0.1875 0.3 0  0.132322 0.2 0  0.241426 0.253518 0  0.241426 0.146482 0  0.264574 0.17974 0  0.264574 0.22026 0  0.138434 0.187348 0  0.153372 0.150948 0  0.148413 0.164094 0  0.176495 0.136535 0  0.22768 0.143571 0  0.138434 0.212652 0  0.148413 0.235906 0  0.176495 0.263465 0  0.22768 0.256429 0  0.23125 0.3 0  0.24769 0.24094 0  0.23125 0.1 0  0.24769 0.15906 0  0.26253 0.193641 0  0.190482 0.137872 0  0.166753 0.146661 0  0.157737 0.244461 0  0.190482 0.262128 0  0.203107 0.261264 0  0.253635 0.22977 0  0.203107 0.138736 0  0.253635 0.17023 0  0.261028 0.206206 0  0.167707 0.251809 0  0.143629 0.224191 0  0.215302 0.2591 0  0.270465 0.245894 0  0.215302 0.1409 0  0.270465 0.154106 0  0.284052 0.202587 0  0.14375 0.3 0  0.209375 0.3 0  0.225966 0.278501 0  0.209375 0.1 0  0.225966 0.121499 0  0.211613 0.273759 0  0.211613 0.126241 0  0.143629 0.175809 0  0.1 0.175 0  0.133484 0.164832 0  0.144491 0.249539 0  0.1 0.225 0  0.133484 0.235168 0  0.3625 0.3 0  0.25691 0.253381 0  0.25691 0.146619 0  0.277205 0.188698 0  0.184724 0.275712 0  0.237372 0.268285 0  0.184724 0.124288 0  0.237372 0.131715 0  0.197578 0.273149 0  0.193656 0.286994 0  0.197578 0.126851 0  0.193656 0.113006 0  0.122953 0.187671 0  0.118362 0.153758 0  0.155372 0.258107 0  0.122953 0.212329 0  0.118362 0.246242 0  0.276394 0.27264 0  0.276394 0.12736 0  0.280965 0.170013 0  0.253125 0.3 0  0.14375 0.1 0  0.253125 0.1 0  0.269489 0.26014 0  0.269489 0.13986 0  0.303639 0.184297 0  0.165625 0.3 0  0.134742 0.273113 0  0.257831 0.274737 0  0.255279 0.128499 0  0.3625 0.1 0  0.165625 0.1 0  0.162031 0.132368 0  0.134955 0.126405 0  0.149334 0.125568 0  0.142936 0.139597 0  0.12695 0.140259 0  0.242514 0.285501 0  0.242514 0.114499 0  0.1 0.125 0  0.117483 0.12555 0  0.11154 0.139776 0  0.121875 0.1 0  0.109143 0.1125 0  0.126805 0.114 0  0.220313 0.29129 0  0.351562 0.287369 0  0.207222 0.2866 0  0.220312 0.10871 0  0.1375 0 0  0.20625 0 0  0.207222 0.1134 0  0.11722 0.17118 0  0.1 0.1625 0  0.0778409 0.16875 0  0.0862762 0.15625 0  0 0.15375 0  0 0.1025 0  0.11722 0.22882 0  0.1 0.2375 0  0 0.3075 0  0.0862762 0.23125 0  0.0598995 0.222547 0  0.0860223 0.2125 0  0.289584 0.181469 0  0.300267 0.16446 0  0.163832 0.269071 0  0.149597 0.273325 0  0.1 0.275 0  0.268498 0.285953 0  0.31875 0.3 0  0.294154 0.254672 0  0.296875 0.3 0  0.293558 0.271845 0  0.285095 0.286799 0  0.324298 0.264316 0  0.307866 0.263745 0  0.317093 0.234901 0  0.315485 0.281219 0  0.316547 0.250625 0  0.344693 0.243731 0  0.331592 0.251147 0  0.35129 0.270663 0  0.338689 0.263683 0  0.340625 0.3 0  0.249849 0.264383 0  0.265097 0.11422 0  0.284688 0.156136 0  0.242188 0.324017 0  0.0856613 0.2625 0  0.132812 0.0612217 0  0.264062 0.0612217 0  0.198437 0.07598340000000001 0  0.0860223 0.1375 0  0.0794526 0.191089 0  0.285228 0.140397 0  0.298655 0.148737 0  0.31875 0.1 0  0.327335 0.15374 0  0.296875 0.1 0  0.312289 0.155283 0  0.313348 0.135607 0  0.321802 0.173916 0  0.298433 0.134116 0  0.112124 0.2625 0  0.127526 0.259083 0  0.121875 0.3 0  0.0682687 0.241503 0  0.1 0.2875 0  0.117762 0.28125 0  0.107813 0.3 0  0.103906 0.313849 0  0.0778409 0.28125 0  0.1375 0.41 0  0.0862762 0.29375 0  0.08886860000000001 0.24375 0  0.307812 0.338778 0  0.307812 0.292227 0  0.33216 0.279164 0  0.387888 0.266414 0  0.264063 0.31948 0  0.110937 0.07598340000000001 0  0.242188 0.07598340000000001 0  0.319914 0.11839 0  0.340625 0.1 0  0.334448 0.133793 0  0.329687 0.108539 0  0.346259 0.118491 0  0.360334 0.173636 0  0.327539 0.205033 0  0.132812 0.288712 0  0.362436 0.278836 0  0.368105 0.259418 0  0.4125 0.41 0  0.329687 0.324017 0  0.329687 0.292306 0  0.285938 0.318952 0  0.417187 0.338778 0  0.324481 0.14148 0  0.351562 0.106771 0  0.40625 0.1 0  0.341028 0.168342 0  0.319221 0.190479 0  0.335292 0.184501 0  0.305563 0.20794 0  0.220313 0.31948 0  0.132812 0.332772 0  0.0865876 0.311259 0  0.0598995 0.302453 0  0.0906541 0.343255 0  0.353543 0.255837 0  0.36574 0.237633 0  0.405007 0.254279 0  0.275795 0.352123 0  0.4125 0 0  0.35493 0.137394 0  0.366563 0.120618 0  0.35917 0.205246 0  0.198438 0.318952 0  0.0626109 0.263892 0  0.40625 0.3 0  0.354809 0.155936 0  0.386512 0.146872 0  0.373101 0.159939 0  0.384375 0.1 0  0.343394 0.19929 0  0.350682 0.185683 0  0.368101 0.189748 0  0.344016 0.221511 0  0.391108 0.213329 0  0.376279 0.204783 0  0.398843 0.182768 0  0.375804 0.222746 0  0.390665 0.196958 0  0.394004 0.23518 0  0.359883 0.222828 0  0.419908 0.204359 0  0.404243 0.204783 0  0.412615 0.224526 0  0.20625 0.41 0  0.165625 0.325257 0  0.0347982 0.244954 0  0.379558 0.247154 0  0.34165 0.147603 0  0.372264 0.136992 0  0.388988 0.121989 0  0.373437 0.108554 0  0.351562 0.31948 0  0.391367 0.16527 0  0.399572 0.223324 0  0.452011 0.227371 0  0.40877 0.239392 0  0.431491 0.237337 0  0.421224 0.250459 0  0.449619 0.262098 0  0.418865 0.276779 0  0.437063 0.252274 0  0.415673 0.263227 0  0.430988 0.266772 0  0.402767 0.273419 0  0.452967 0.244883 0  0.428125 0.3 0  0.408502 0.286186 0  0.384375 0.3 0  0.392267 0.285807 0  0.465927 0.219339 0  0.43489 0.283846 0  0.376424 0.286289 0  0.625 0.3 0  0.473533 0.205186 0  0.461713 0.255517 0  0.5375 0.3 0  0.465725 0.235405 0  0.44631 0.201425 0  0.471875 0.3 0  0.494307 0.227729 0  0.459448 0.206736 0  0.462294 0.180792 0  0.478933 0.227536 0  0.486793 0.21381 0  0.486322 0.251373 0  0.50065 0.215318 0  0.54005 0.175389 0  0.474633 0.189893 0  0.512916 0.208697 0  0.49531 0.199967 0  0.475889 0.175275 0  0.625 0.1 0  0.459311 0.153933 0  0.513645 0.242704 0  0.392892 0.248539 0  0.374815 0.271913 0  0.365974 0.14871 0  0.395312 0.109184 0  0.417061 0.123981 0  0.483196 0.277003 0  0.381967 0.179632 0  0.429898 0.219374 0  0.433473 0.206165 0  0.43149 0.181038 0  0.444208 0.215487 0  0.472985 0.247309 0  0.49375 0.3 0  0.475579 0.262714 0  0.49916 0.274293 0  0.501175 0.184809 0  0.514164 0.225681 0  0.543648 0.214977 0  0.5341630000000001 0.23481 0  0.527396 0.216171 0  0.5375 0.1 0  0.534548 0.202315 0  0.561545 0.192513 0  0.5494289999999999 0.201221 0  0.570923 0.218346 0  0.412582 0.149833 0  0.489327 0.264745 0  0.502439 0.254775 0  0.462391 0.271166 0  0.496775 0.241732 0  0.5294410000000001 0.268606 0  0.482812 0.291099 0  0.46879 0.285038 0  0.452663 0.284065 0  0.51789 0.257882 0  0.53408 0.252026 0  0.560142 0.243543 0  0.545708 0.243474 0  0.547532 0.229019 0  0.55282 0.265323 0  0.398971 0.153424 0  0.400349 0.135684 0  0.410135 0.168145 0  0.428823 0.161323 0  0.415266 0.183779 0  0.329687 0.0810483 0  0.395312 0.0612217 0  0.373437 0.318952 0  0.439062 0.324017 0  0.561816 0.229354 0  0.585029 0.239287 0  0.431827 0.139854 0  0.446796 0.168929 0  0.351562 0.07598340000000001 0  0.395313 0.318944 0  0.54337 0.150762 0  0.460937 0.31948 0  0.418412 0.137529 0  0.428125 0.1 0  0.442783 0.152332 0  0.450742 0.134294 0  0.373437 0.0805201 0  0.384383 0.342558 0  0.482812 0.318952 0  0.429239 0.127457 0  0.444274 0.117405 0  0.426548 0.113815 0  0.49375 0.1 0  0.488954 0.113984 0  0.457973 0.121842 0  0.471621 0.137346 0  0.515625 0.325257 0  0.48125 0.41 0  0.417187 0.07598340000000001 0  0.496363 0.126778 0  0.479043 0.155715 0  0.439062 0.0805201 0  0.481795 0.126919 0  0.471875 0.1 0  0.489227 0.142159 0  0.515625 0.1 0  0.520062 0.147117 0  0.501244 0.161791 0  0.505431 0.112984 0  0.505344 0.14029 0  0.526563 0.119081 0  0.5181750000000001 0.131908 0  0.539868 0.136937 0  0.460937 0.108383 0  0.474242 0.114415 0  0.460937 0.0810483 0  0.487841 0.167168 0  0.526563 0.0612217 0  0.526563 0.106406 0  0.537619 0.112743 0  0.58125 0.1 0  0.559375 0.1 0  0.482812 0.08105569999999999 0  0.471883 0.0587655 0  0.570312 0.129396 0  0.548437 0.07598340000000001 0  0.504687 0.08105569999999999 0  0.49375 0.0470127 0  0.570312 0.112663 0  0.592798 0.12103 0  0.553986 0.12103 0  0.570312 0.0805201 0  0.48125 0 0  0.114787 0.2 0  0.160769 0.284765 0  0.175816 0.288361 0  0.162602 0.116048 0  0.154687 0.07598340000000001 0  0.176562 0.0805201 0  0.0598995 0.147547 0  0.307812 0.109924 0  0.291279 0.117157 0  0.278491 0.112989 0  0.285937 0.07598340000000001 0  0.307812 0.0805201 0  0.296928 0.196743 0  0.318141 0.218507 0  0.330208 0.227509 0  0.301397 0.225668 0  0.302706 0.241401 0  0.292574 0.21424 0  0.282762 0.230935 0  0.284351 0.244775 0  0.269553 0.23261 0  0.278572 0.217242 0  0.226924 0.342606 0  0.446928 0.185396 0  0.515625 0.3 0  0.504687 0.288879 0  0.515256 0.276534 0  0.529479 0.285328 0  0.58125 0.3 0  0.541969 0.272936 0  0.559375 0.3 0  0.556796 0.282529 0  0.543473 0.287206 0  0.581429 0.267774 0  0.566728 0.271171 0  0.570869 0.255585 0  0.577404 0.283865 0  0.603125 0.3 0  0.597531 0.28035 0  0.570312 0.338778 0  0.592188 0.292492 0  0.603513 0.256094 0  0.614063 0.286265 0  0.610329 0.27064 0  0.632708 0.251285 0  0.657223 0.261594 0  0.618789 0.257807 0  0.614188 0.22987 0  0.630935 0.265614 
[...]
<PointData  Vectors="v"> 
	<DataArray  type="Float64"  Name="v"  NumberOfComponents="3" format="ascii">
0.0 0.0 0.0 0.0 0.0 0.0 0.0 0.0 0.0 0.0 0.0 0.0 0.7976230231423653 -0.18923747899324322 0.0 0.841083859592119 0.19822791274090973 0.0 1.0333759349509328 -0.032830106514708794 0.0 0.9587995394529474 0.024849605119711852 0.0 0.0 0.0 0.0 0.0 0.0 0.0 0.0 0.0 0.0 0.0 0.0 0.0 0.0 0.0 0.0 0.0 0.0 0.0 0.0 0.0 0.0 0.0 0.0 0.0 0.0 0.0 0.0 0.0 0.0 0.0 0.0 0.0 0.0 0.0 0.0 0.0 0.0 0.0 0.0 0.0 0.0 0.0 0.0 0.0 0.0 0.0 0.0 0.0 0.0 0.0 0.0 0.0 0.0 0.0 0.0 0.0 0.0 0.0 0.0 0.0 0.0 0.0 0.0 0.0 0.0 0.0 0.0 0.0 0.0 0.0 0.0 0.0 0.0 0.0 0.0 0.0 0.0 0.0 0.0 0.0 0.0 0.0 0.0 0.0 0.0 0.0 0.0 0.0 0.0 0.0 0.0 0.0 0.0 0.0 0.0 0.0 0.0 0.0 0.0 0.7648464956033199 -0.0031954555044753983 0.0 1.2067114668484327 0.12086788729950874 0.0 1.237453938088238 -0.12124440019400862 0.0 0.0 0.0 0.0 1.3024822514133074 -0.07494637187013643 0.0 1.314551517268112 0.09230632854917556 0.0 0.0 0.0 0.0 0.0 0.0 0.0 1.0 0.0 0.0 0.0 0.0 0.0 0.0 0.0 0.0 0.0 0.0 0.0 0.8472278635964896 -0.22976456834764433 0.0 1.1550300353501028 -0.30182314248836684 0.0 0.867906941662581 0.22387169633521214 0.0 1.168515210228998 0.3088680859921019 0.0 0.4320976159243275 -0.0063782092939246565 0.0 0.1651635975803141 0.0270926642658539 0.0 0.1719324012137838 -0.023511806984677884 0.0 -0.04673226719003899 -0.06689702260769803 0.0 -0.04937570559709918 0.06109385094429856 0.0 0.33832898597810945 -0.2841443038834759 0.0 0.8740967527518414 -0.6734197014073348 0.0 0.6516357873470995 -0.6954171721090825 0.0 1.2442404581459547 -0.6031795306471509 0.0 0.30385801079692887 0.002995784842478218 0.0 0.33374408754285884 0.2678226757635625 0.0 0.6522147849242685 0.6713784607277091 0.0 1.2203327388694305 0.6029664661156967 0.0 0.2900372832650115 0.0008739410875972086 0.0 1.2826421639657761 0.19378486117877317 0.0 -0.020356919643136268 0.053392383627378616 0.0 1.2732062002455 -0.1752131182107485 0.0 -0.017110285263559403 -0.05417804239928408 0.0 -0.03609028021973613 -0.029412706611479125 0.0 1.225620056634092 -0.3988380829555183 0.0 1.1293820056444959 -0.7313215462017775 0.0 0.8704768156459987 0.7768325030251505 0.0 1.2304105612808673 0.3986467030960529 0.0 0.9086616976570013 0.1645952791607979 0.0 -0.03753412038005277 0.06708513362687973 0.0 0.9185721085430435 -0.16060900475456122 0.0 -0.038520968573037814 -0.07046845023927223 0.0 -0.030543419364362695 0.018801775647016426 0.0 1.0600797707543592 0.7275166689690244 0.0 0.44759184343379876 0.5307790841795192 0.0 0.5362487050151822 0.03201043673764953 0.0 0.07389634959472348 0.04753029127928828 0.0 0.5462455576001303 -0.03073896104772011 0.0 0.083123703944832 -0.05211992090005597 0.0 -0.11083247957488244 0.003093946016727762 0.0 0.9688408670072802 0.297703236718874 0.0 1.2522797443135432 0.2461008939291116 0.0 1.2949247956889 0.20398808406916744 0.0 1.2262463535085104 -0.24369084943844563 0.0 1.2934250512238197 -0.19663122426402585 0.0 1.3037179781326016 0.25427160686420003 0.0 1.3083559906259168 -0.24633629509612012 0.0 0.45020045686329485 -0.5516529117986065 0.0 0.8060022278081209 -0.13999462658283665 0.0 0.6795374168015965 -0.4204980753324055 0.0 0.8908787077763137 0.590778529254828 0.0 0.8030952693714777 0.13949224226710888 0.0 0.6841075871275392 0.4171354900504644 0.0 1.2795303657144927 -0.04248083052454744 0.0 0.1910180433246769 0.032684876790868456 0.0 0.20893549349970927 -0.028277775541074936 0.0 -0.08431882057987118 -0.03932178112942756 0.0 1.3017726647076626 0.42794886056171866 0.0 0.8757217801171103 0.06763143669253618 0.0 1.2980784469865794 -0.4336228484218365 0.0 0.8960690453623265 -0.06047556898645715 0.0 1.3321119469793632 0.35989972762127076 0.0 1.2700327126334843 0.34572417559772367 0.0 1.3288976412851707 -0.3575405111841629 0.0 1.261754474976835 -0.32675742349257414 0.0 0.5885422287871743 -0.16270569217579042 0.0 0.8035000099088664 -0.3304298713543751 0.0 1.0309524286855507 0.5957146356219205 0.0 0.5962410494534288 0.14814911783173212 0.0 0.8188262363375277 0.32663401191590163 0.0 0.8717259710756985 0.03592929160075453 0.0 0.904871404377142 -0.0265852660787681 0.0 -0.03709913495394347 -0.06191333596823408 0.0 1.3092148627278568 0.13533258652256536 0.0 0.93443620889788 -0.30550713394524426 0.0 1.2923570794120378 -0.11885642794198205 0.0 0.4076448609063496 0.026617954664702626 0.0 0.43977615124852676 -0.019115152183613243 0.0 -0.12431071831160218 -0.03093442468337204 0.0 1.0621049103569957 0.32282282935154377 0.0 0.9522780998191902 0.37923790019040887 0.0 1.0272323320843548 0.07074454643409081 0.0 0.9243800889402098 -0.048420969800153216 0.0 1.2733997322666093 0.057007929243832696 0.0 1.0337282727207078 -0.31802278915080495 0.0 1.098739625882775 -0.5583405361542653 0.0 0.9405815470260942 -0.3800577530107481 0.0 1.0125258345192536 -0.42502543007366883 0.0 0.9477832964352089 -0.538416875994435 0.0 0.8747676361749332 -0.4020701126023365 0.0 1.3093746532852821 0.1572815345567559 0.0 1.30240869522454 -0.14663920378732925 0.0 0.8563846186025297 -0.23070968843564357 0.0 0.8853444387129895 -0.30314121794674803 0.0 0.8589952542890741 -0.2950598962279446 0.0 0.8538124519991027 -0.2457779555338729 0.0 0.8577472137873967 -0.2451080350101568 0.0 0.9024162935470156 -0.30913958113070744 0.0 1.3155804955664063 0.22816182706398808 0.0 1.170133818789739 -0.03618561854324214 0.0 1.3268307321303856 0.28862614822853844 0.0 1.3073781397816762 -0.20965663531189596 0.0 0.0 0.0 0.0 0.0 0.0 0.0 1.3108060919774185 -0.27669315812108625 0.0 0.7199587441947375 -0.2683169281270553 0.0 0.8246830946780828 -0.2099744137322683 0.0 0.8737702705897231 -0.11030423631058454 0.0 0.8656593513934948 -0.16239393862081786 0.0 0.9375 0.0 0.0 0.7500000000000001 0.0 0.0 0.7274733168996175 0.2622223844625204 0.0 0.8280807082459083 0.1959952871537376 0.0 0.7499999999999999 0.0 0.0 0.8725207003139124 0.12426813787004716 0.0 0.9301318830307076 0.040666103083278726 0.0 0.850914324177204 0.04274022492187464 0.0 -0.09350774923856311 -0.044362549675052904 0.0 0.011943199804384979 -0.04250416306943383 0.0 1.1378325691253248 0.5371469396360858 0.0 1.0326670425692352 0.4583626386790549 0.0 0.8837711756640225 0.2375902176569075 0.0 1.2493567160825565 0.08621374035948805 0.0 1.301478396740841 0.017278644836089662 0.0 0.28575772767408697 0.0189438685974102 0.0 1.3151674398203532 0.0517285421537716 0.0 0.8172052201530704 0.015146482047439024 0.0 1.2290875105728645 0.05560252364459416 0.0 0.5811005599233393 -0.010636938051087333 0.0 0.5468351941779432 0.0031693237726021627 0.0 -0.003101166106283938 0.02817689390500919 0.0 1.0713504389632509 0.00202474645389905 0.0 0.22983777529037858 0.013598266878081288 0.0 0.1421657095657907 0.007165635145003769 0.0 0.2611113279134071 0.005347917040460265 0.0 0.7848528333001275 -0.035051098708097535 0.0 0.5768114113693562 -0.018706730521576245 0.0 1.29609718286546 -0.01659410841297259 0.0 0.6045385550425234 0.029282733381734326 0.0 1.2629642338396592 -0.08483765594623875 0.0 0.09034754236067184 -0.045184300782135985 0.0 1.1515732532009002 0.11598132672107563 0.0 0.8852498351415332 0.1740469805001839 0.0 0.6962991919846282 -0.1562180260238403 0.0 1.04585473889062 -0.057038017231497276 0.0 1.0182397816863429 -0.18398397915386422 0.0 0.8666085748659934 -0.17954278072766122 0.0 0.8778983616103198 -0.026717777572606224 0.0 0.43494961498369056 -0.01617778695631599 0.0 0.24306053466806443 -0.021875357355539235 0.0 1.2931444038514037 0.003427948639033862 0.0 0.1931417884637022 -0.009166448411514707 0.0 1.3041885916462637 -0.03456655771472688 0.0 0.1445046888603706 -0.023180430498052775 0.0 0.6137958345039165 0.013461500096127685 0.0 -0.07204293392954578 -0.026843222640288322 0.0 0.6453366278720879 0.0008733914130427344 0.0 0.8842277855295001 0.28958496980985315 0.0 0.887692535649517 0.4034027513409242 0.0 0.8863413802003371 0.2565320929946321 0.0 0.9140352710262136 0.10636855442393628 0.0 0.8670454699806186 0.21420668940192464 0.0 0.9090331726979991 0.2928553095420395 0.0 0.858206613862931 0.22260897321376424 0.0 0.8014270440049188 0.1730993021971986 0.0 0.8681871955571553 0.15542160716187295 0.0 0.0 0.0 0.0 0.8421778733702715 0.16917028143095583 0.0 0.8737068375393059 0.16660184795057362 0.0 1.1205818051331262 0.014825801250592992 0.0 1.2670141241577513 0.024630100147362253 0.0 1.00855913098076 -0.017928308599526446 0.0 0.7205986171306306 -0.05820971561357257 0.0 1.2144047636452044 0.09034464879272183 0.0 0.7163456931439907 -0.16482674590423876 0.0 1.1245117718418205 -0.11036689231292213 0.0 1.104542394346131 0.01457271472857348 0.0 1.2872739304942493 0.033192510767490926 0.0 0.6937126492119559 0.03355799548448279 0.0 1.2522106422044015 0.023546126503568732 0.0 1.0955395307861042 0.048150478237723046 0.0 -0.065054066309456 -0.001506108802256033 0.0 -0.19378507126804775 0.005730880961285339 0.0 0.9501215092435206 0.326049202143556 0.0 1.0035925113811002 -0.05074477348216555 0.0 0.5091577965763758 -0.03162518780347551 0.0 0.0 0.0 0.0 1.2238934798523016 -0.001513655017470496 0.0 1.2517999963887736 -0.010155924264021439 0.0 1.234605244595813 0.06137928756633444 0.0 1.1106632569562358 -0.07290538737408389 0.0 0.4610542283668518 0.00829548895440106 0.0 1.2501314343156378 0.051522509942037956 0.0 1.2439095250673147 0.0976333202074635 0.0 -0.010281597138672797 -0.012524696606271066 0.0 -0.16830060915169812 -0.015477292854484872 0.0 -0.15699488542283402 -0.014859682542262791 0.0 -0.155565296604998 0.011504157160912817 0.0 1.1522153847070902 0.16569634691624927 0.0 0.772971191029538 0.18304821961020676 0.0 0.7775987670262787 0.14638615233486416 0.0 0.7858581608382762 0.10213701841279023 0.0 0.6178489691277568 0.1038930680836543 0.0 0.3995648613158402 -0.016027140112828776 0.0 0.06822487909901158 0.0035426055641231634 0.0 0.4601073701751124 -0.04708348349950454 0.0 0.9918410867969043 0.043560461219922096 0.0 0.0 0.0 0.0 0.6237986645133007 0.04593736667600296 0.0 1.0519716254759104 0.07164353867713062 0.0 -0.2241362185157851 0.00823060312103597 0.0 1.0798776891773731 0.22145881066485198 0.0 0.9013026318316504 0.10827209223656388 0.0 1.2636019927296116 -0.08745085913160539 0.0 0.19498691161018167 0.01135922364401676 0.0 0.44349346500561226 0.05725537128586205 0.0 0.14929366567801552 0.02089899026089536 0.0 1.26229212939565 0.08037335669624057 0.0 -0.21499088775119554 0.0009389101442195193 0.0 -0.17293692998185473 -0.00691301311178923 0.0 -0.20405869311520183 0.0022487323373420265 0.0 -0.13036060428803076 0.017261759754952578 0.0 -0.19725242032712553 0.01140040780006398 0.0 -0.23351004231505046 0.010339468740929217 0.0 -0.14735957742629824 0.017863170754107278 0.0 -0.119002799164038 0.010777006389580164 0.0 -0.235913282968352 0.011165127379435563 0.0 0.06344201554317319 -0.004871879854548938 0.0 -0.1203875016083703 0.014274457667112727 0.0 -0.2306216035280848 0.014049538159795797 0.0 -0.23554570360774407 0.01319384919652051 0.0 -0.07184981038884077 0.00015018413003611996 0.0 0.0 0.0 0.0 0.937316636400097 0.2287769570744502 0.0 0.9517216099363679 0.03838850346992964 0.0 0.2566316813638974 -0.016644161413723005 0.0 0.34259306930703276 0.01358374911072407 0.0 0.663951570433311 0.06268284078338118 0.0 1.035288350012593 0.09182324864987591 0.0 1.2263175798815424 0.07699603776304031 0.0 1.2508424215894738 -0.023324258995482572 0.0 0.08284783593133005 0.02848812150684346 0.0 -0.09873247067880749 0.005431099200773672 0.0 0.031178821000076278 -0.02339811894545336 0.0 0.1598482033146093 -0.01943016837471852 0.0 0.16486630582778458 -0.029537485994856574 0.0 0.41042780233830667 -0.05061689303709619 0.0 0.7357284197682245 -0.1005489706450978 0.0 0.9984529371067613 -0.09683489985001621 0.0 0.488032747560188 -0.06752960785562714 0.0 0.6933207671178073 -0.07384790492064529 0.0 0.8042622888587757 -0.09311884060308678 0.0 0.9116591914053482 -0.0803388492056271 0.0 0.36494972516789825 -0.06230901358694176 0.0 1.2510584087076275 -0.10506544448728186 0.0 1.1492932776704035 -0.09330533580326535 0.0 1.2736428323699647 -0.06527462444807698 0.0 1.1434733721279164 -0.07780981000003334 0.0 -0.06036665295228001 -0.015510720671878392 0.0 1.1275945468604267 -0.1151115465801981 0.0 1.1506657892335985 -0.06497287782014961 0.0 1.0919733450305997 -0.09816805606208517 0.0 -0.1693451192691865 0.005133304511444875 0.0 0.6167328031725469 -0.09501618929281871 0.0 1.1660878420660716 -0.14343741369223142 0.0 0.2035641396943063 -0.049795658705873394 0.0 -0.21350326594668795 0.015382269595189612 0.0 1.2221250501285144 -0.13331762753571566 0.0 0.13083762614948358 -0.05294057756273926 0.0 -0.18478824531403593 0.006532469685754293 0.0 -0.05611889887940956 0.04340324244061679 0.0 0.09018673361477274 -0.042326682078475446 0.0 -0.0842578224768981 -0.01685523806610516 0.0 0.5859018768140059 -0.10470851423461168 0.0 -0.038127749060167054 -0.028143179278226904 0.0 0.1829617890855724 0.04550637371188862 0.0 -0.13480811004355653 0.029140202636313454 0.0 -0.07284213401714337 -0.020582177110298503 0.0 -0.14053281484412194 0.005951207005711475 0.0 0.04850942056965476 0.05401900651523716 0.0 1.0806312318452842 0.10344976303128302 0.0 0.43139827241621603 0.09167799533461216 0.0 0.4686371260737312 -0.10252940347717962 0.0 0.3101247430684931 -0.027201889475925268 0.0 0.8391642148357585 -0.05410251345394711 0.0 0.363025283980152 0.03436964068997458 0.0 1.2092369155895912 0.0984724915095207 0.0 1.0110165106301547 0.11505091722503975 0.0 1.0567920924726237 -0.1433246199050017 0.0 -0.12259418563708582 0.009913165593545555 0.0 -0.11583547687116395 0.0002584427454625216 0.0 -0.2157838435566443 0.012357384442617041 0.0 -0.10042338806740822 0.03515876727874648 0.0 -0.13994406687555347 0.0006060439278342177 0.0 0.46598953522998837 -0.08480666218677713 0.0 1.2050082484832554 -0.13960572243313166 0.0 0.8004165476448571 -0.12072159223794428 0.0 1.031135823455031 -0.14917362494759914 0.0 -0.03794802178033801 0.03337132919923263 0.0 0.14399029242569142 -0.06118364267955885 0.0 0.05928809341949589 -0.050807281601783674 0.0 0.3613557019586411 -0.09412446797170104 0.0 0.03447747915059062 -0.04572510224358391 0.0 1.1409137819805135 0.12262529661286174 0.0 -0.05375630957452719 -0.016211530696676888 0.0 0.03319374109970932 -0.002174652516667212 0.0 -0.019699206086204388 -0.020015545813558445 0.0 0.16715896933806976 -0.06714968867916968 0.0 0.42948979879749716 0.07295884909065227 0.0 0.8634216553124968 -0.13376684838567643 0.0 0.6912424320041445 -0.12349342743668766 0.0 0.9447712129649157 -0.1253086209914379 0.0 0.4077910993965722 -0.08864173410525887 0.0 0.9731043686491186 -0.1522752456627358 0.0 1.1888626355422582 -0.14398055928443065 0.0 1.1472116901005716 -0.13861334447770696 0.0 1.1337772307042338 -0.12722140583863317 0.0 0.7815045551220051 -0.13661793862054641 0.0 0.6982158440830154 -0.130830463107822 0.0 0.5852936391197121 -0.11918130072325896 0.0 0.5552739902551717 -0.11737153501500894 0.0 0.2837905554167295 -0.08579962806606403 0.0 0.9443279858855081 -0.14870575143451908 0.0 0.32229617606975697 0.05443684818695943 0.0 0.7429543771721356 0.08931302391669652 0.0 0.06059583024939611 0.03881704398242949 0.0 0.2169513415300605 0.06269505592792204 0.0 -0.14690401458120964 0.02512054524810289 0.0 1.2277561468454912 0.015633521911152158 0.0 1.0762196426850503 0.0663733829727542 0.0 1.2503523890911181 -0.047566683229167905 0.0 1.1900169027197167 -0.09861175591732968 0.0 0.32281330926152046 -0.09053112378003444 0.0 0.5492493304364976 -0.10955461121739461 0.0 0.6950867924049688 0.1043754740992722 0.0 0.10539459036871622 0.05782623998120017 0.0 1.1936183550347952 0.03880213078159302 0.0 1.2396684160827587 -0.06780463547674367 0.0 0.6585466761458726 0.10027548524760174 0.0 1.1937780024517934 -0.1138012972102199 0.0 0.7256600944895362 0.09922370613200737 0.0 1.2262286484062541 0.11248380540898224 0.0 0.4330900340905834 0.08769404775526939 0.0 0.8425822997319692 0.1223554708188447 0.0 1.2146656679175447 0.059938509090983264 0.0 1.1023027920879669 -0.05150582380730132 0.0 1.1757857705499137 -0.12315242599619777 0.0 0.954509646276924 0.11781915881055963 0.0 1.114180427308564 0.1296858447236301 0.0 1.1586932223875266 0.1217145803747445 0.0 1.1730176938605594 0.12704000169888158 0.0 1.1373122309698258 0.135889093135504 0.0 1.0617898653852837 0.13294214067324872 0.0 0.8065477919149906 0.1236720635948216 0.0 1.1010332355710681 -0.11972288534265084 0.0 0.0 0.0 0.0 1.1613435901728786 0.0888634604974264 0.0 1.007910429417828 0.13401956648021016 0.0 0.4318398880160819 0.09312932795564346 0.0 1.1688224562656484 0.10315501568538896 0.0 0.9994800356157428 0.1346924966279868 0.0 1.1900555589340125 0.12469326476425027 0.0 0.7358376150428428 0.11867712292549627 0.0 1.1557033297191435 0.1251035201291664 0.0 0.6871572993734137 0.10968183348257135 0.0 0.3511386189526693 0.08228930881879053 0.0 1.135986221880131 0.13428711903665125 0.0 0.7961531929083256 0.12192643867304714 0.0 1.0944796829831325 0.13251240130188824 0.0 0.950085741853909 0.12974783032241163 0.0 0.8941032250299734 0.12180807294008299 0.0 1.181032111643867 0.13078999363151966 0.0 1.1375306307557165 0.13493384355448454 0.0 1.1490619546326017 0.11085175000260675 0.0 0.21639039245611605 0.07064418856987492 0.0 0.933811624927162 0.08540598094759326 0.0 1.1474732592454435 0.12883349748890321 0.0 1.126552025453651 0.12920823876124088 0.0 1.109909013171325 0.1140694049036532 0.0 1.1242030271593704 0.11924844727178627 0.0 1.1244444166620002 0.11129497244292601 0.0 0.9908481692485223 0.08216834473458272 0.0 1.0144594110898655 0.12152518127246398 0.0 1.0283222879220124 0.09898873953541566 0.0 1.107053067493899 0.1096878677602619 0.0 0.8185882860727033 0.06885717763421421 0.0 1.1162107602934288 0.1227101200284274 0.0 1.0825921553471114 0.11946120943588377 0.0 1.0814030469353426 0.1272184745564671 0.0 1.036150686494875 0.09984474426996118 0.0 0.0 0.0 0.0 0.6487079301905614 -0.007682582022626544 0.0 1.090695423502241 0.4094860990293384 0.0 1.1826936891300956 0.38625321232762394 0.0 1.0985159516628218 -0.4028914866457437 0.0 0.8598744374432683 -0.20713647284379258 0.0 0.9715284662885503 -0.22490628910363472 0.0 0.8937677395089518 -0.08378621026583814 0.0 1.26037532450079 -0.01169768302768438 0.0 1.1669496883017083 -0.02560273687209848 0.0 1.250409298773207 -0.055548861116725606 0.0 1.1781335642546433 -0.036780879968410625 0.0 1.2193966525964528 -0.010105180139098023 0.0 -0.1423860076403686 -0.011021418472114148 0.0 -0.1346273502581416 0.0230745555309708 0.0 -0.07511792086333131 0.022509186218538185 0.0 -0.07892301763065077 0.036930567782307126 0.0 0.06342600213295314 0.0347696447515628 0.0 -0.11627924940032051 0.027619982740950004 0.0 -0.0400593548049593 0.0549413956451389 0.0 0.08687765838946268 0.04291452071304087 0.0 -0.03391025528481214 0.06724839365845696 0.0 -0.08199540210203012 0.04375826684822587 0.0 0.9881701430734864 0.11928700416698879 0.0 -0.13206108230792976 0.034579218789858146 0.0 1.1860880419664952 -0.143533740017909 0.0 1.1677462864780075 -0.15219092381466118 0.0 1.0657271767037468 -0.15401040762459323 0.0 1.13835363872609 -0.15447844158133373 0.0 1.1268175296028369 -0.1257665913732394 0.0 1.0332698891074716 -0.15398821912986788 0.0 1.1454887921578978 -0.1357251352947249 0.0 1.1116955769277277 -0.14946302651792154 0.0 1.1400868477203112 -0.15075754186439566 0.0 0.9870795789014436 -0.13918674423446012 0.0 1.0203080280867924 -0.14685513232924013 0.0 0.8142100253883563 -0.13576489219613683 0.0 1.1092882005754015 -0.14053774429938318 0.0 1.1076823250392147 -0.11338452684517751 0.0 1.0843895054429487 -0.12900300148458987 0.0 0.9434090418098771 -0.09141788647176921 0.0 1.1205908897727324 -0.12533977534396207 0.0 0.8498854892689464 -0.12161132670676401 0.0 1.0984385327488155 -0.11410756384633255 0.0 1.0178218197728601 -0.12194285708985984 0.0 0.8009131510066877 -0.09994823464504526 0.0 0.9362451539227283 -0.0855838072871571 0.0 0.8817926718382542 -0.11266060963341303 0.0 0.42924861983032114 -0.08616558129406968 0.0 0.9730382922726268 -0.10607957408747022 0.0 0.664006411399013 -0.10099366835122724 0.0 1.0675048249835564 -0.070115145092