<?xml version="1.0"?>
<VTKFile type="UnstructuredGrid"  version="0.1"  >
<UnstructuredGrid>
<Piece  NumberOfPoints="1289" NumberOfCells="2413">
<Points>
<DataArray  type="Float64"  NumberOfComponents="3"  format="ascii">0 0 0  0 0.41 0  2.2 0.41 0  2.2 0 0  0.1 0.1 0  0.1 0.3 0  0.8 0.3 0  0.8 0.1 0  0.25 0.2 0  0.248976 0.210065 0  0.245948 0.219718 0  0.241038 0.228563 0  0.234448 0.23624 0  0.226448 0.242432 0  0.217365 0.246888 0  0.207571 0.249423 0  0.197468 0.249936 0  0.187467 0.248404 0  0.17798 0.24489 0  0.169395 0.239539 0  0.162062 0.232569 0  0.156283 0.224265 0  0.152293 0.214968 0  0.150257 0.205058 0  0.150257 0.194942 0  0.152293 0.185032 0  0.156283 0.175735 0  0.162062 0.167431 0  0.169395 0.160461 0  0.17798 0.15511 0  0.187467 0.151596 0  0.197468 0.150064 0  0.207571 0.150577 0  0.217365 0.153112 0  0.226448 0.157568 0  0.234448 0.16376 0  0.241038 0.171437 0  0.245948 0.180282 0  0.248976 0.189935 0  1.1 0 0  1.1 0.41 0  0.1 0.2 0  0.45 0.1 0  0.45 0.3 0  0.55 0 0  0.275 0.1 0  0.275 0.3 0  0.275 0 0  0.55 0.41 0  0 0.205 0  0.825 0 0  0.825 0.41 0  0.275 0.41 0  0.1 0.15 0  0.1875 0.1 0  0.1 0.25 0  0.1875 0.3 0  0.132322 0.2 0  0.241426 0.253518 0  0.241426 0.146482 0  0.264574 0.17974 0  0.264574 0.22026 0  0.138434 0.187348 0  0.153372 0.150948 0  0.148413 0.164094 0  0.176495 0.136535 0  0.22768 0.143571 0  0.138434 0.212652 0  0.148413 0.235906 0  0.176495 0.263465 0  0.22768 0.256429 0  0.23125 0.3 0  0.24769 0.24094 0  0.23125 0.1 0  0.24769 0.15906 0  0.26253 0.193641 0  0.190482 0.137872 0  0.166753 0.146661 0  0.157737 0.244461 0  0.190482 0.262128 0  0.203107 0.261264 0  0.253635 0.22977 0  0.203107 0.138736 0  0.253635 0.17023 0  0.261028 0.206206 0  0.167707 0.251809 0  0.143629 0.224191 0  0.215302 0.2591 0  0.270465 0.245894 0  0.215302 0.1409 0  0.270465 0.154106 0  0.284052 0.202587 0  0.14375 0.3 0  0.209375 0.3 0  0.225966 0.278501 0  0.209375 0.1 0  0.225966 0.121499 0  0.211613 0.273759 0  0.211613 0.126241 0  0.143629 0.175809 0  0.1 0.175 0  0.133484 0.164832 0  0.144491 0.249539 0  0.1 0.225 0  0.133484 0.235168 0  0.3625 0.3 0  0.25691 0.253381 0  0.25691 0.146619 0  0.277205 0.188698 0  0.184724 0.275712 0  0.237372 0.268285 0  0.184724 0.124288 0  0.237372 0.131715 0  0.197578 0.273149 0  0.193656 0.286994 0  0.197578 0.126851 0  0.193656 0.113006 0  0.122953 0.187671 0  0.118362 0.153758 0  0.155372 0.258107 0  0.122953 0.212329 0  0.118362 0.246242 0  0.276394 0.27264 0  0.276394 0.12736 0  0.280965 0.170013 0  0.253125 0.3 0  0.14375 0.1 0  0.253125 0.1 0  0.269489 0.26014 0  0.269489 0.13986 0  0.303639 0.184297 0  0.165625 0.3 0  0.134742 0.273113 0  0.257831 0.274737 0  0.255279 0.128499 0  0.3625 0.1 0  0.165625 0.1 0  0.162031 0.132368 0  0.134955 0.126405 0  0.149334 0.125568 0  0.142936 0.139597 0  0.12695 0.140259 0  0.242514 0.285501 0  0.242514 0.114499 0  0.1 0.125 0  0.117483 0.12555 0  0.11154 0.139776 0  0.121875 0.1 0  0.109143 0.1125 0  0.126805 0.114 0  0.220313 0.29129 0  0.351562 0.287369 0  0.207222 0.2866 0  0.220312 0.10871 0  0.1375 0 0  0.20625 0 0  0.207222 0.1134 0  0.11722 0.17118 0  0.1 0.1625 0  0.0778409 0.16875 0  0.0862762 0.15625 0  0 0.15375 0  0 0.1025 0  0.11722 0.22882 0  0.1 0.2375 0  0 0.3075 0  0.0862762 0.23125 0  0.0598995 0.222547 0  0.0860223 0.2125 0  0.289584 0.181469 0  0.300267 0.16446 0  0.163832 0.269071 0  0.149597 0.273325 0  0.1 0.275 0  0.268498 0.285953 0  0.31875 0.3 0  0.294154 0.254672 0  0.296875 0.3 0  0.293558 0.271845 0  0.285095 0.286799 0  0.324298 0.264316 0  0.307866 0.263745 0  0.317093 0.234901 0  0.315485 0.281219 0  0.316547 0.250625 0  0.344693 0.243731 0  0.331592 0.251147 0  0.35129 0.270663 0  0.338689 0.263683 0  0.340625 0.3 0  0.249849 0.264383 0  0.265097 0.11422 0  0.284688 0.156136 0  0.242188 0.324017 0  0.0856613 0.2625 0  0.132812 0.0612217 0  0.264062 0.0612217 0  0.198437 0.07598340000000001 0  0.0860223 0.1375 0  0.0794526 0.191089 0  0.285228 0.140397 0  0.298655 0.148737 0  0.31875 0.1 0  0.327335 0.15374 0  0.296875 0.1 0  0.312289 0.155283 0  0.313348 0.135607 0  0.321802 0.173916 0  0.298433 0.134116 0  0.112124 0.2625 0  0.127526 0.259083 0  0.121875 0.3 0  0.0682687 0.241503 0  0.1 0.2875 0  0.117762 0.28125 0  0.107813 0.3 0  0.103906 0.313849 0  0.0778409 0.28125 0  0.1375 0.41 0  0.0862762 0.29375 0  0.08886860000000001 0.24375 0  0.307812 0.338778 0  0.307812 0.292227 0  0.33216 0.279164 0  0.387888 0.266414 0  0.264063 0.31948 0  0.110937 0.07598340000000001 0  0.242188 0.07598340000000001 0  0.319914 0.11839 0  0.340625 0.1 0  0.334448 0.133793 0  0.329687 0.108539 0  0.346259 0.118491 0  0.360334 0.173636 0  0.327539 0.205033 0  0.132812 0.288712 0  0.362436 0.278836 0  0.368105 0.259418 0  0.4125 0.41 0  0.329687 0.324017 0  0.329687 0.292306 0  0.285938 0.318952 0  0.417187 0.338778 0  0.324481 0.14148 0  0.351562 0.106771 0  0.40625 0.1 0  0.341028 0.168342 0  0.319221 0.190479 0  0.335292 0.184501 0  0.305563 0.20794 0  0.220313 0.31948 0  0.132812 0.332772 0  0.0865876 0.311259 0  0.0598995 0.302453 0  0.0906541 0.343255 0  0.353543 0.255837 0  0.36574 0.237633 0  0.405007 0.254279 0  0.275795 0.352123 0  0.4125 0 0  0.35493 0.137394 0  0.366563 0.120618 0  0.35917 0.205246 0  0.198438 0.318952 0  0.0626109 0.263892 0  0.40625 0.3 0  0.354809 0.155936 0  0.386512 0.146872 0  0.373101 0.159939 0  0.384375 0.1 0  0.343394 0.19929 0  0.350682 0.185683 0  0.368101 0.189748 0  0.344016 0.221511 0  0.391108 0.213329 0  0.376279 0.204783 0  0.398843 0.182768 0  0.375804 0.222746 0  0.390665 0.196958 0  0.394004 0.23518 0  0.359883 0.222828 0  0.419908 0.204359 0  0.404243 0.204783 0  0.412615 0.224526 0  0.20625 0.41 0  0.165625 0.325257 0  0.0347982 0.244954 0  0.379558 0.247154 0  0.34165 0.147603 0  0.372264 0.136992 0  0.388988 0.121989 0  0.373437 0.108554 0  0.351562 0.31948 0  0.391367 0.16527 0  0.399572 0.223324 0  0.452011 0.227371 0  0.40877 0.239392 0  0.431491 0.237337 0  0.421224 0.250459 0  0.449619 0.262098 0  0.418865 0.276779 0  0.437063 0.252274 0  0.415673 0.263227 0  0.430988 0.266772 0  0.402767 0.273419 0  0.452967 0.244883 0  0.428125 0.3 0  0.408502 0.286186 0  0.384375 0.3 0  0.392267 0.285807 0  0.465927 0.219339 0  0.43489 0.283846 0  0.376424 0.286289 0  0.625 0.3 0  0.473533 0.205186 0  0.461713 0.255517 0  0.5375 0.3 0  0.465725 0.235405 0  0.44631 0.201425 0  0.471875 0.3 0  0.494307 0.227729 0  0.459448 0.206736 0  0.462294 0.180792 0  0.478933 0.227536 0  0.486793 0.21381 0  0.486322 0.251373 0  0.50065 0.215318 0  0.54005 0.175389 0  0.474633 0.189893 0  0.512916 0.208697 0  0.49531 0.199967 0  0.475889 0.175275 0  0.625 0.1 0  0.459311 0.153933 0  0.513645 0.242704 0  0.392892 0.248539 0  0.374815 0.271913 0  0.365974 0.14871 0  0.395312 0.109184 0  0.417061 0.123981 0  0.483196 0.277003 0  0.381967 0.179632 0  0.429898 0.219374 0  0.433473 0.206165 0  0.43149 0.181038 0  0.444208 0.215487 0  0.472985 0.247309 0  0.49375 0.3 0  0.475579 0.262714 0  0.49916 0.274293 0  0.501175 0.184809 0  0.514164 0.225681 0  0.543648 0.214977 0  0.5341630000000001 0.23481 0  0.527396 0.216171 0  0.5375 0.1 0  0.534548 0.202315 0  0.561545 0.192513 0  0.5494289999999999 0.201221 0  0.570923 0.218346 0  0.412582 0.149833 0  0.489327 0.264745 0  0.502439 0.254775 0  0.462391 0.271166 0  0.496775 0.241732 0  0.5294410000000001 0.268606 0  0.482812 0.291099 0  0.46879 0.285038 0  0.452663 0.284065 0  0.51789 0.257882 0  0.53408 0.252026 0  0.560142 0.243543 0  0.545708 0.243474 0  0.547532 0.229019 0  0.55282 0.265323 0  0.398971 0.153424 0  0.400349 0.135684 0  0.410135 0.168145 0  0.428823 0.161323 0  0.415266 0.183779 0  0.329687 0.0810483 0  0.395312 0.0612217 0  0.373437 0.318952 0  0.439062 0.324017 0  0.561816 0.229354 0  0.585029 0.239287 0  0.431827 0.139854 0  0.446796 0.168929 0  0.351562 0.07598340000000001 0  0.395313 0.318944 0  0.54337 0.150762 0  0.460937 0.31948 0  0.418412 0.137529 0  0.428125 0.1 0  0.442783 0.152332 0  0.450742 0.134294 0  0.373437 0.0805201 0  0.384383 0.342558 0  0.482812 0.318952 0  0.429239 0.127457 0  0.444274 0.117405 0  0.426548 0.113815 0  0.49375 0.1 0  0.488954 0.113984 0  0.457973 0.121842 0  0.471621 0.137346 0  0.515625 0.325257 0  0.48125 0.41 0  0.417187 0.07598340000000001 0  0.496363 0.126778 0  0.479043 0.155715 0  0.439062 0.0805201 0  0.481795 0.126919 0  0.471875 0.1 0  0.489227 0.142159 0  0.515625 0.1 0  0.520062 0.147117 0  0.501244 0.161791 0  0.505431 0.112984 0  0.505344 0.14029 0  0.526563 0.119081 0  0.5181750000000001 0.131908 0  0.539868 0.136937 0  0.460937 0.108383 0  0.474242 0.114415 0  0.460937 0.0810483 0  0.487841 0.167168 0  0.526563 0.0612217 0  0.526563 0.106406 0  0.537619 0.112743 0  0.58125 0.1 0  0.559375 0.1 0  0.482812 0.08105569999999999 0  0.471883 0.0587655 0  0.570312 0.129396 0  0.548437 0.07598340000000001 0  0.504687 0.08105569999999999 0  0.49375 0.0470127 0  0.570312 0.112663 0  0.592798 0.12103 0  0.553986 0.12103 0  0.570312 0.0805201 0  0.48125 0 0  0.114787 0.2 0  0.160769 0.284765 0  0.175816 0.288361 0  0.162602 0.116048 0  0.154687 0.07598340000000001 0  0.176562 0.0805201 0  0.0598995 0.147547 0  0.307812 0.109924 0  0.291279 0.117157 0  0.278491 0.112989 0  0.285937 0.07598340000000001 0  0.307812 0.0805201 0  0.296928 0.196743 0  0.318141 0.218507 0  0.330208 0.227509 0  0.301397 0.225668 0  0.302706 0.241401 0  0.292574 0.21424 0  0.282762 0.230935 0  0.284351 0.244775 0  0.269553 0.23261 0  0.278572 0.217242 0  0.226924 0.342606 0  0.446928 0.185396 0  0.515625 0.3 0  0.504687 0.288879 0  0.515256 0.276534 0  0.529479 0.285328 0  0.58125 0.3 0  0.541969 0.272936 0  0.559375 0.3 0  0.556796 0.282529 0  0.543473 0.287206 0  0.581429 0.267774 0  0.566728 0.271171 0  0.570869 0.255585 0  0.577404 0.283865 0  0.603125 0.3 0  0.597531 0.28035 0  0.570312 0.338778 0  0.592188 0.292492 0  0.603513 0.256094 0  0.614063 0.286265 0  0.610329 0.27064 0  0.632708 0.251285 0  0.657223 0.261594 0  0.618789 0.257807 0  0.614188 0.22987 0  0.630935 0.265614 
[...]
<PointData  Vectors="v"> 
	<DataArray  type="Float64"  Name="v"  NumberOfComponents="3" format="ascii">
0.0 0.0 0.0 0.0 0.0 0.0 0.0 0.0 0.0 0.0 0.0 0.0 0.7974368135832115 -0.18888559691818008 0.0 0.8412782826517594 0.1985914574118827 0.0 1.0336767181088178 -0.045119643943368856 0.0 0.9610994676263706 0.01581396098462184 0.0 0.0 0.0 0.0 0.0 0.0 0.0 0.0 0.0 0.0 0.0 0.0 0.0 0.0 0.0 0.0 0.0 0.0 0.0 0.0 0.0 0.0 0.0 0.0 0.0 0.0 0.0 0.0 0.0 0.0 0.0 0.0 0.0 0.0 0.0 0.0 0.0 0.0 0.0 0.0 0.0 0.0 0.0 0.0 0.0 0.0 0.0 0.0 0.0 0.0 0.0 0.0 0.0 0.0 0.0 0.0 0.0 0.0 0.0 0.0 0.0 0.0 0.0 0.0 0.0 0.0 0.0 0.0 0.0 0.0 0.0 0.0 0.0 0.0 0.0 0.0 0.0 0.0 0.0 0.0 0.0 0.0 0.0 0.0 0.0 0.0 0.0 0.0 0.0 0.0 0.0 0.0 0.0 0.0 0.0 0.0 0.0 0.0 0.0 0.0 0.7648505641107788 -0.0024933099355959496 0.0 1.2133478851766637 0.11695565499624735 0.0 1.2313230651445288 -0.12587418590983213 0.0 0.0 0.0 0.0 1.3011372778909733 -0.07483255766076749 0.0 1.3159345979427348 0.09247097921240609 0.0 0.0 0.0 0.0 0.0 0.0 0.0 1.0 0.0 0.0 0.0 0.0 0.0 0.0 0.0 0.0 0.0 0.0 0.0 0.8470427521655906 -0.22918335660452566 0.0 1.1544321736587158 -0.30149526882356537 0.0 0.8680848311861686 0.2244503759146978 0.0 1.1690905328313743 0.3092032998196638 0.0 0.43211074518345904 -0.005460318982796579 0.0 0.16470151274420194 0.02753130016209839 0.0 0.17237794208293908 -0.023047220452782204 0.0 -0.04716140176636422 -0.06279363884852542 0.0 -0.0490836891140851 0.06523154461412654 0.0 0.33816296855461897 -0.2831288457479151 0.0 0.873573827007975 -0.6726747933203862 0.0 0.6511772323882269 -0.694539254062121 0.0 1.2435905413523696 -0.602684672307298 0.0 0.3041742213249441 0.0032489164415145095 0.0 0.3339213490484393 0.26884276165271115 0.0 0.6526610735780023 0.6722705491777627 0.0 1.22093683310416 0.603459762643311 0.0 0.28967889629092003 0.0011307382887286383 0.0 1.283386706680495 0.19405326921148203 0.0 -0.02056113395020058 0.05420614454463621 0.0 1.2724423087108918 -0.1749681952905078 0.0 -0.016929617402419713 -0.053419454574290336 0.0 -0.03611166262441107 -0.024883586480973927 0.0 1.2250749161866903 -0.39855114872939557 0.0 1.1286992505905389 -0.7307015514902351 0.0 0.8710582313336648 0.7775962638538485 0.0 1.2309251735425344 0.3989271032211993 0.0 0.9088079000445326 0.16475982775748674 0.0 -0.03758545086864729 0.06900031077988572 0.0 0.9183700700700291 -0.1604474529515264 0.0 -0.0384685933747778 -0.0686519921151292 0.0 -0.030581157083558918 0.023139952549781826 0.0 1.060664314543217 0.7280953293538909 0.0 0.44798366032558684 0.5317743468062929 0.0 0.5360954975557195 0.03216302117021522 0.0 0.07468204477653125 0.05018508109932508 0.0 0.5463566003324068 -0.03058709883808332 0.0 0.08244321762919257 -0.04938050507565213 0.0 -0.11069006593601328 0.008889534184685214 0.0 0.9692284804571365 0.2981109651062581 0.0 1.2529180107023699 0.24637153454241764 0.0 1.2955429607197542 0.2043240883618728 0.0 1.2255839426677724 -0.24342359083644102 0.0 1.2927840748545076 -0.1963087355306162 0.0 1.304277989016038 0.2545804385988555 0.0 1.3077493180619455 -0.24604078282931502 0.0 0.4498047016831054 -0.5506559197844799 0.0 0.8058846317652085 -0.13930554678057297 0.0 0.679214412330467 -0.4195938439412778 0.0 0.8913577890099896 0.5915175709318967 0.0 0.8032185117107215 0.14017538916655664 0.0 0.6844395157361637 0.4180440497115513 0.0 1.283081121658786 -0.04664253922197194 0.0 0.1907158769039787 0.0338167724481568 0.0 0.20924811325129616 -0.02714973543739431 0.0 -0.08493667651938688 -0.03387048814930565 0.0 1.3023891241550958 0.42833787582186905 0.0 0.8759239158540902 0.06800806465907186 0.0 1.2974282090029337 -0.4332493746994043 0.0 0.8958043887066499 -0.06009392293866811 0.0 1.3327020501163107 0.3602351241177749 0.0 1.2706369210307988 0.34607791330604143 0.0 1.3282868929911402 -0.3572116134904761 0.0 1.2611256623941989 -0.32643197107274385 0.0 0.5884091247680381 -0.16180093856911223 0.0 0.8032377745136946 -0.32971696792709637 0.0 1.0315231376749514 0.5963430960023722 0.0 0.5963724866630243 0.14905473375094364 0.0 0.819086631631523 0.32734786570279034 0.0 0.8727956858226664 0.037149385486250026 0.0 0.9036598924981127 -0.02549244325607433 0.0 -0.039000168751476195 -0.05720662562622354 0.0 1.3101764139977996 0.13557708730665669 0.0 0.9340385733347241 -0.30508626065650823 0.0 1.291392334833811 -0.11863495275723343 0.0 0.40781934435252776 0.02824982538082333 0.0 0.4394904721985519 -0.017574821450129712 0.0 -0.12617371673470376 -0.02468261884016273 0.0 1.0625958719738058 0.3232062533792187 0.0 0.9526560975513678 0.37978746627199744 0.0 1.0279584279098075 0.0714417758852387 0.0 0.923863339915498 -0.04784560104647264 0.0 1.2703240023328228 0.05310013234328526 0.0 1.0332138118658407 -0.3176436201369664 0.0 1.0981624103672418 -0.5577980403020609 0.0 0.9401882649461114 -0.3795086636211571 0.0 1.0120441512557588 -0.4245058031500636 0.0 0.9473044626159064 -0.5377535825751579 0.0 0.8744282233699897 -0.40142080073599756 0.0 1.3101899438125062 0.1576727962561132 0.0 1.3015874146804458 -0.1462740821963599 0.0 0.8561813821112475 -0.2302430379223947 0.0 0.8850480390036273 -0.30262138534825406 0.0 0.8587394602407054 -0.29448395283989176 0.0 0.853511320609447 -0.24538212759216707 0.0 0.8574972750468748 -0.24467650902308113 0.0 0.9020799492038749 -0.3086636530323501 0.0 1.3162512463063725 0.2284553093075071 0.0 1.176820798778779 -0.038960450577087316 0.0 1.3274675825580469 0.2889564790572597 0.0 1.3066848944981988 -0.20938638414143454 0.0 0.0 0.0 0.0 0.0 0.0 0.0 1.3101517303156605 -0.27637922246826346 0.0 0.7197734206025478 -0.26752452219894834 0.0 0.8245216774060413 -0.2093466850570336 0.0 0.8736978294220936 -0.10980475623034529 0.0 0.8655452473374639 -0.16187921136859826 0.0 0.9375 0.0 0.0 0.7500000000000001 0.0 0.0 0.7276548659724454 0.2630122301505337 0.0 0.8282383799739159 0.19662687133826592 0.0 0.7499999999999999 0.0 0.0 0.8726183409730456 0.12482965721439243 0.0 0.9301692840545832 0.04102430622411751 0.0 0.8509416953814942 0.04332746927766359 0.0 -0.09508638412639474 -0.03858680578956072 0.0 0.008729103569619515 -0.03721961507342208 0.0 1.1384019809612738 0.5376797376352588 0.0 1.0331451714836315 0.45890668663418216 0.0 0.883968464135165 0.23806424007897917 0.0 1.2507044269276075 0.08679906477518735 0.0 1.3043022883456472 0.016287860182067505 0.0 0.2881395987355958 0.02239151351237802 0.0 1.3172501218085166 0.05155890133446701 0.0 0.8195053769993523 0.016692028025198237 0.0 1.2310724395345138 0.05622378605039232 0.0 0.5871001274037079 -0.00855498309563673 0.0 0.550495675840495 0.005801484481404929 0.0 0.0011998384608626238 0.0336556243530516 0.0 1.0757969426981557 0.0024602160677452073 0.0 0.23495239807565443 0.01776153672787021 0.0 0.14943045544494699 0.010277004543784699 0.0 0.2679355402969976 0.008919764510388725 0.0 0.7944658704394165 -0.03629565654070083 0.0 0.5848755288361327 -0.017565869534029582 0.0 1.2997184925713043 -0.01890362932821878 0.0 0.6044909753450652 0.029858109521152105 0.0 1.2617924287510929 -0.08423540317615733 0.0 0.08810936058360258 -0.04129359344931116 0.0 1.1523634284174962 0.11602837215674752 0.0 0.8853789986310681 0.17449684850828115 0.0 0.6959966838206029 -0.15598351400819435 0.0 1.0450314467947477 -0.0571378799135811 0.0 1.0176379013288388 -0.18380134080681615 0.0 0.8664699281096917 -0.17910180402232692 0.0 0.8778833111136273 -0.026182757572518242 0.0 0.43357412691279623 -0.013865833628377495 0.0 0.23990571321796647 -0.018193119143979166 0.0 1.2904520593847284 0.0023023542630225525 0.0 0.18691663176512655 -0.005021735587036688 0.0 1.302215221240596 -0.034724622100823874 0.0 0.13985750816556528 -0.018489076500631554 0.0 0.6093774475562553 0.015489827674260331 0.0 -0.07579579587195004 -0.02116742070567507 0.0 0.6428054437568715 0.002977626965188629 0.0 0.8844816483171241 0.2901519822029586 0.0 0.8880267987828487 0.4040602118734585 0.0 0.8866265454787874 0.25694286440560543 0.0 0.9141021367601468 0.10677450444703349 0.0 0.8672389011273098 0.21461012115186964 0.0 0.9093171449651976 0.2933521111304526 0.0 0.8584332281592483 0.2229955495122102 0.0 0.8016242991856729 0.17340921720775707 0.0 0.8683090157596004 0.15576682839877365 0.0 0.0 0.0 0.0 0.842318744562684 0.1695088928809976 0.0 0.8738300931247792 0.16713060402727142 0.0 1.1214667973319667 0.013920692914459201 0.0 1.270114777136913 0.02460880810331562 0.0 1.0148322345320313 -0.018214783601734775 0.0 0.7340678210713799 -0.06501891626849966 0.0 1.2154233426599905 0.0902878552088257 0.0 0.7161272593847308 -0.1645386303145591 0.0 1.1237112807095724 -0.11031578004216257 0.0 1.0998935251974797 0.014743266826928841 0.0 1.2840405963239592 0.030810641026036333 0.0 0.6863580923530375 0.034303548814896646 0.0 1.2480652074495528 0.0222101131889274 0.0 1.0883533674485792 0.04623095521411799 0.0 -0.07045298476175908 -0.000388049761861168 0.0 -0.19309190898003506 0.011891301179383987 0.0 0.9504756643460451 0.3265235951004493 0.0 1.0131014840779557 -0.05427382186959094 0.0 0.5209928349272491 -0.034096911753064854 0.0 0.0 0.0 0.0 1.2250867868369586 -0.0033729581637410543 0.0 1.2562122522172527 -0.011530508924129011 0.0 1.2358839755018824 0.061043968226916726 0.0 1.1068352482478443 -0.07578442276856248 0.0 0.45499476858757043 0.010988198788838362 0.0 1.2455146464253906 0.04820878532004253 0.0 1.2442917483219522 0.0913393060004788 0.0 -0.015821400057132742 -0.008557030237440736 0.0 -0.1696336208768256 -0.009182968624248406 0.0 -0.1595390656912894 -0.009549813878745927 0.0 -0.15481761475444525 0.01810704556121859 0.0 1.1528956428854606 0.16587072480405757 0.0 0.7732548861394348 0.18332041859511441 0.0 0.7777274978765616 0.14666555303694406 0.0 0.7859255001025551 0.10235311191163872 0.0 0.6179815302386876 0.10408487625089538 0.0 0.4094592193673352 -0.015648543995791263 0.0 0.07606803517221043 0.0028733866020408056 0.0 0.4730488142040799 -0.0577446617297429 0.0 0.9925225988655911 0.04320374450137808 0.0 0.0 0.0 0.0 0.6133742535967281 0.04484768503486902 0.0 1.0429787220105837 0.0674423009680856 0.0 -0.2232042042312055 0.010152153306285123 0.0 1.080460801365486 0.22168999295193373 0.0 0.9013687690851482 0.10858666959601755 0.0 1.2639640543228472 -0.09422662691300143 0.0 0.18622548000757644 0.012544712876061164 0.0 0.4304509941164587 0.05086168162676464 0.0 0.1401463555167033 0.018645566983145574 0.0 1.2604260961677587 0.0748899861925177 0.0 -0.21516529559860725 0.005527150891687787 0.0 -0.17572763112826614 -0.0034575281644891103 0.0 -0.2064253211988884 0.0021098096003424865 0.0 -0.1269389685541343 0.021459212782460952 0.0 -0.1943172466240416 0.004508402216393413 0.0 -0.23267892911583382 0.008021514083245406 0.0 -0.15166212279287655 0.008294906607502867 0.0 -0.1143407485033723 0.008023475851859474 0.0 -0.23686134880390117 0.004302640241655947 0.0 0.07159805541392819 -0.012601775715517462 0.0 -0.11572348724668444 0.01563335426783461 0.0 -0.2297630650745839 -0.0033580096741414036 0.0 -0.23473920202155002 0.0012666500833451214 0.0 -0.0666513346559847 -0.013843993433559068 0.0 0.0 0.0 0.0 0.9377666985863059 0.22905621588997907 0.0 0.95173088952283 0.038567975679753966 0.0 0.2674044561109053 -0.020678103970812774 0.0 0.3343265283268627 0.015786128038481798 0.0 0.65143114796777 0.058535929792686625 0.0 1.0253663104328785 0.08479368640462975 0.0 1.221242516014225 0.0716553589371591 0.0 1.2519074960707455 -0.026225811479282414 0.0 0.07430323052302396 0.021296507541482174 0.0 -0.09351608520829717 -0.004219054106843368 0.0 0.03264144116530953 -0.04594946366163185 0.0 0.16871196695524265 -0.03151948964777416 0.0 0.17161739947819252 -0.04723763139075837 0.0 0.4213431618744284 -0.06476140144796734 0.0 0.7421030275081111 -0.11444754927732528 0.0 1.0074160312239302 -0.10717634870755259 0.0 0.4969773425916546 -0.0836062206554994 0.0 0.7061241872000401 -0.08581881237031617 0.0 0.8143935704488747 -0.10595982759289861 0.0 0.9234501514537896 -0.08959610963604063 0.0 0.3689533832059675 -0.08070510415886153 0.0 1.2483513960636106 -0.11154612657477735 0.0 1.1550959392514681 -0.10188505180606443 0.0 1.2763363655397535 -0.07098437172146514 0.0 1.1509991187042132 -0.08510676156650913 0.0 -0.062417573275981124 -0.040909292827940855 0.0 1.1298035982160588 -0.1241733704827982 0.0 1.1583802560872687 -0.07065755399377964 0.0 1.099534191954349 -0.08982821546604129 0.0 -0.17057375529898222 -0.022230166878140112 0.0 0.619264729424616 -0.10980705775879013 0.0 1.1556803163829363 -0.1313395591324439 0.0 0.2022991919706168 -0.07066679464711416 0.0 -0.21383610283713128 -0.00898696033676045 0.0 1.2127578011068518 -0.13435377142710475 0.0 0.11954232745760508 -0.07157280190381848 0.0 -0.184868266359296 -0.020076708786367813 0.0 -0.05470807772913272 0.01915781516856409 0.0 0.08415414354667236 -0.06405649045674659 0.0 -0.08998973817410183 -0.04148542086606078 0.0 0.5790762146606765 -0.1161395067686451 0.0 -0.04793120604736093 -0.04905158601497906 0.0 0.21297250606469972 0.047146303467654686 0.0 -0.13228050497597732 0.002462798015871813 0.0 -0.0805659225533845 -0.03872379812160792 0.0 -0.13988458623792516 -0.018608793227265455 0.0 0.05388220704389319 0.03142016912995649 0.0 1.0723151628616465 0.11006903352221106 0.0 0.4286838044115372 0.07458957280804993 0.0 0.44912477578439364 -0.10789536829288349 0.0 0.32168407227321166 -0.035014834396507225 0.0 0.8511091052440934 -0.05905799627725566 0.0 0.35198218885558163 0.03263450125282536 0.0 1.2050698590060644 0.09116989894579647 0.0 1.0025749461829752 0.10499814614965698 0.0 1.048831018494657 -0.14629172148294017 0.0 -0.12758684598848122 0.005549087221296742 0.0 -0.11283755996765547 -0.019323208426625032 0.0 -0.2147801480722093 -0.008925503310078794 0.0 -0.10391091508267031 0.015369857976246338 0.0 -0.1384937026269317 -0.022894402492979072 0.0 0.4639381317526126 -0.10089171738762523 0.0 1.1934982487111283 -0.13617063962466658 0.0 0.7978081615334215 -0.13051512375515348 0.0 1.0192275244674507 -0.14818136853226158 0.0 -0.026741063766360304 0.01386933270950682 0.0 0.12487622199525945 -0.0733341672505542 0.0 0.037858972981819214 -0.051881277005527145 0.0 0.3320773309388853 -0.09370159272257328 0.0 0.016393087048120033 -0.055285272779031495 0.0 1.1504094679592891 0.13428302206990758 0.0 -0.0558509392110331 -0.024178980110086665 0.0 0.04980661282905115 0.0068723418365704775 0.0 -0.019706834187092303 -0.019300963105382384 0.0 0.136336300983547 -0.05302685759852662 0.0 0.41726701924427434 0.06068412725721256 0.0 0.8552884778336018 -0.13883212909327328 0.0 0.6779583612011162 -0.1278364421592908 0.0 0.9448845680770299 -0.13480969436883392 0.0 0.3955125255704689 -0.10094319028189301 0.0 0.9531414764170308 -0.1423007846381661 0.0 1.1786498539260657 -0.1438313116314991 0.0 1.1410761689925373 -0.142941585121648 0.0 1.13193373524836 -0.13448138692115136 0.0 0.7621995170210087 -0.13367688913749548 0.0 0.6720031117679568 -0.12377388433228914 0.0 0.548151681935881 -0.10397900623400444 0.0 0.5225540495786616 -0.10791491065496933 0.0 0.2506434873380465 -0.08104350690817076 0.0 0.9197075797048345 -0.13254062445781556 0.0 0.310570198595438 0.04512088647300691 0.0 0.7295349140099631 0.08011114412208087 0.0 0.05296889847150654 0.025812532903628727 0.0 0.20907439419393573 0.04585646719480134 0.0 -0.15067581060078672 0.01043967548213439 0.0 1.2263471206662153 0.013803936518013139 0.0 1.0786481209179104 0.06343605733941979 0.0 1.2505283341244664 -0.05165627372487899 0.0 1.1837886923593206 -0.10144690759498082 0.0 0.2848951650423357 -0.07847437828348565 0.0 0.5070053541919946 -0.08740887165300301 0.0 0.6847238281721646 0.09095013651689592 0.0 0.10226426362917311 0.03711203710541983 0.0 1.1930594998121455 0.03612159182813501 0.0 1.2380519857114751 -0.07253632431210866 0.0 0.6885506835200674 0.11098982769296224 0.0 1.185629651335236 -0.11449745613569426 0.0 0.713515063076914 0.08720754510624897 0.0 1.2294137340961553 0.10665003176983208 0.0 0.4258328190912447 0.0708786765140456 0.0 0.8378122192943943 0.11048237511680292 0.0 1.214853128960215 0.05609704563731741 0.0 1.100721120836453 -0.05430135271536419 0.0 1.1664505321803516 -0.12086918824708563 0.0 0.9468751629507575 0.1069399576370239 0.0 1.1144902978927573 0.12152303700593645 0.0 1.1567076727660626 0.11316608259184499 0.0 1.184362707710945 0.13081686290212996 0.0 1.1481131559870124 0.13723066573771903 0.0 1.0636456922509776 0.12567434834232333 0.0 0.8082129873446918 0.1140197103704505 0.0 1.093471846263775 -0.11310503480963105 0.0 0.0 0.0 0.0 1.1656646344794692 0.08503147531945662 0.0 1.0193128744501612 0.13470291020623826 0.0 0.43664962380917705 0.07804341631144958 0.0 1.1751141963972895 0.10029786160561577 0.0 1.0068274613527408 0.13117565171304407 0.0 1.1995454131190193 0.12414990159595236 0.0 0.7439483192720866 0.11170122251913289 0.0 1.1670325037086906 0.13349607785608206 0.0 0.7080576038254922 0.11190526866225226 0.0 0.36607263377512694 0.07121806775411894 0.0 1.1490977123422013 0.1400384008391768 0.0 0.8105882401727698 0.12096680900972763 0.0 1.1101132170284367 0.14331855234683935 0.0 0.9675197500567169 0.13645676402763524 0.0 0.9177645817565299 0.1345402953438669 0.0 1.1878815144007273 0.12699571603252804 0.0 1.1457780679996228 0.13253559708698226 0.0 1.157226458353794 0.11018703982609493 0.0 0.2257885909048302 0.05288037418092161 0.0 0.9369975044766976 0.091768152932095 0.0 1.159674526653718 0.13969940848182807 0.0 1.139925485581805 0.1424942298989973 0.0 1.1115938173811188 0.12776446961165264 0.0 1.1307939632938722 0.13320244295707445 0.0 1.1334204426643242 0.11364550820700513 0.0 0.9978821647862557 0.08356291218166416 0.0 1.0341186637930142 0.1409263721330441 0.0 1.0307752824718435 0.10852696411655019 0.0 1.1158286275510854 0.11512207100217625 0.0 0.8230645832318746 0.07187901308953741 0.0 1.125177454576665 0.13932376252799633 0.0 1.091592213855937 0.1375180193043478 0.0 1.0973669445416727 0.14378425564896669 0.0 1.035844358336272 0.11012587167198719 0.0 0.0 0.0 0.0 0.648712559284477 -0.006883797221575302 0.0 1.09119516183005 0.4099481904247489 0.0 1.1832510433431407 0.38664226520105205 0.0 1.0979672586415465 -0.4024480555284099 0.0 0.8594683932128494 -0.2068675775638056 0.0 0.9710116865250803 -0.22464522650697488 0.0 0.8937112576034482 -0.08347108041028573 0.0 1.257159318605208 -0.011697334067529961 0.0 1.1645716634299366 -0.02488593080365831 0.0 1.248704031572971 -0.05497649506287406 0.0 1.1769667001808415 -0.03716163050915861 0.0 1.2180278302802057 -0.01103432161505504 0.0 -0.1428668830777859 -0.0047254721208937365 0.0 -0.13228969345423408 0.029318016431478768 0.0 -0.07100351467262746 0.027714649477363594 0.0 -0.07635955293660271 0.04286507670132984 0.0 0.06708332647440576 0.039662132625562854 0.0 -0.11509290686196187 0.033584095628653034 0.0 -0.03807706863264766 0.0599149798104942 0.0 0.08904229049554739 0.04672989608013927 0.0 -0.0329037726116743 0.07111056519685896 0.0 -0.0810787458972964 0.04900842990494512 0.0 0.9888047506007656 0.11932533354638203 0.0 -0.1333412977640586 0.010655330973739987 0.0 1.174286895676962 -0.13531971942369533 0.0 1.154778686156368 -0.14673985550857332 0.0 1.0502213715472262 -0.14731412347421446 0.0 1.1234170657828222 -0.1428991125285775 0.0 1.124178345825741 -0.11140172949858516 0.0 1.0135164175208156 -0.13988734467424027 0.0 1.1386228461723806 -0.12125527847928232 0.0 1.097025120579371 -0.13257455089445286 0.0 1.1263207873872991 -0.13636742475391977 0.0 0.9649366595710518 -0.11828632437002486 0.0 0.9996858732805745 -0.12750660765850383 0.0 0.782006513607819 -0.11582577828631606 0.0 1.0983901834542265 -0.12221710801234904 0.0 1.1101625478155883 -0.1008984439980489 0.0 1.075830366612269 -0.1109058709420812 0.0 0.9454587017070173 -0.08377735360945826 0.0 1.117760193398813 -0.109584973441353 0.0 0.8205516603901958 -0.09848176079800604 0.0 1.097895957976775 -0.10013495301531357 0.0 1.0043014636272913 -0.10288012814236729 0.0 0.7759727557603224 -0.07866332271615306 0.0 0.9313643868559192 -0.07528207648757414 0.0 0.858118933027048 -0.0913273563641957 0.0 0.38984307785921163 -0.0571184567534206 0.0 0.9612441809362017 -0.0896728748025199 0.0 0.6286832340813056 -0.07536087656527339 0.0 1.082568630385489 -0.07355340684