<?xml version="1.0"?>
<VTKFile type="UnstructuredGrid"  version="0.1"  >
<UnstructuredGrid>
<Piece  NumberOfPoints="1289" NumberOfCells="2413">
<Points>
<DataArray  type="Float64"  NumberOfComponents="3"  format="ascii">0 0 0  0 0.41 0  2.2 0.41 0  2.2 0 0  0.1 0.1 0  0.1 0.3 0  0.8 0.3 0  0.8 0.1 0  0.25 0.2 0  0.248976 0.210065 0  0.245948 0.219718 0  0.241038 0.228563 0  0.234448 0.23624 0  0.226448 0.242432 0  0.217365 0.246888 0  0.207571 0.249423 0  0.197468 0.249936 0  0.187467 0.248404 0  0.17798 0.24489 0  0.169395 0.239539 0  0.162062 0.232569 0  0.156283 0.224265 0  0.152293 0.214968 0  0.150257 0.205058 0  0.150257 0.194942 0  0.152293 0.185032 0  0.156283 0.175735 0  0.162062 0.167431 0  0.169395 0.160461 0  0.17798 0.15511 0  0.187467 0.151596 0  0.197468 0.150064 0  0.207571 0.150577 0  0.217365 0.153112 0  0.226448 0.157568 0  0.234448 0.16376 0  0.241038 0.171437 0  0.245948 0.180282 0  0.248976 0.189935 0  1.1 0 0  1.1 0.41 0  0.1 0.2 0  0.45 0.1 0  0.45 0.3 0  0.55 0 0  0.275 0.1 0  0.275 0.3 0  0.275 0 0  0.55 0.41 0  0 0.205 0  0.825 0 0  0.825 0.41 0  0.275 0.41 0  0.1 0.15 0  0.1875 0.1 0  0.1 0.25 0  0.1875 0.3 0  0.132322 0.2 0  0.241426 0.253518 0  0.241426 0.146482 0  0.264574 0.17974 0  0.264574 0.22026 0  0.138434 0.187348 0  0.153372 0.150948 0  0.148413 0.164094 0  0.176495 0.136535 0  0.22768 0.143571 0  0.138434 0.212652 0  0.148413 0.235906 0  0.176495 0.263465 0  0.22768 0.256429 0  0.23125 0.3 0  0.24769 0.24094 0  0.23125 0.1 0  0.24769 0.15906 0  0.26253 0.193641 0  0.190482 0.137872 0  0.166753 0.146661 0  0.157737 0.244461 0  0.190482 0.262128 0  0.203107 0.261264 0  0.253635 0.22977 0  0.203107 0.138736 0  0.253635 0.17023 0  0.261028 0.206206 0  0.167707 0.251809 0  0.143629 0.224191 0  0.215302 0.2591 0  0.270465 0.245894 0  0.215302 0.1409 0  0.270465 0.154106 0  0.284052 0.202587 0  0.14375 0.3 0  0.209375 0.3 0  0.225966 0.278501 0  0.209375 0.1 0  0.225966 0.121499 0  0.211613 0.273759 0  0.211613 0.126241 0  0.143629 0.175809 0  0.1 0.175 0  0.133484 0.164832 0  0.144491 0.249539 0  0.1 0.225 0  0.133484 0.235168 0  0.3625 0.3 0  0.25691 0.253381 0  0.25691 0.146619 0  0.277205 0.188698 0  0.184724 0.275712 0  0.237372 0.268285 0  0.184724 0.124288 0  0.237372 0.131715 0  0.197578 0.273149 0  0.193656 0.286994 0  0.197578 0.126851 0  0.193656 0.113006 0  0.122953 0.187671 0  0.118362 0.153758 0  0.155372 0.258107 0  0.122953 0.212329 0  0.118362 0.246242 0  0.276394 0.27264 0  0.276394 0.12736 0  0.280965 0.170013 0  0.253125 0.3 0  0.14375 0.1 0  0.253125 0.1 0  0.269489 0.26014 0  0.269489 0.13986 0  0.303639 0.184297 0  0.165625 0.3 0  0.134742 0.273113 0  0.257831 0.274737 0  0.255279 0.128499 0  0.3625 0.1 0  0.165625 0.1 0  0.162031 0.132368 0  0.134955 0.126405 0  0.149334 0.125568 0  0.142936 0.139597 0  0.12695 0.140259 0  0.242514 0.285501 0  0.242514 0.114499 0  0.1 0.125 0  0.117483 0.12555 0  0.11154 0.139776 0  0.121875 0.1 0  0.109143 0.1125 0  0.126805 0.114 0  0.220313 0.29129 0  0.351562 0.287369 0  0.207222 0.2866 0  0.220312 0.10871 0  0.1375 0 0  0.20625 0 0  0.207222 0.1134 0  0.11722 0.17118 0  0.1 0.1625 0  0.0778409 0.16875 0  0.0862762 0.15625 0  0 0.15375 0  0 0.1025 0  0.11722 0.22882 0  0.1 0.2375 0  0 0.3075 0  0.0862762 0.23125 0  0.0598995 0.222547 0  0.0860223 0.2125 0  0.289584 0.181469 0  0.300267 0.16446 0  0.163832 0.269071 0  0.149597 0.273325 0  0.1 0.275 0  0.268498 0.285953 0  0.31875 0.3 0  0.294154 0.254672 0  0.296875 0.3 0  0.293558 0.271845 0  0.285095 0.286799 0  0.324298 0.264316 0  0.307866 0.263745 0  0.317093 0.234901 0  0.315485 0.281219 0  0.316547 0.250625 0  0.344693 0.243731 0  0.331592 0.251147 0  0.35129 0.270663 0  0.338689 0.263683 0  0.340625 0.3 0  0.249849 0.264383 0  0.265097 0.11422 0  0.284688 0.156136 0  0.242188 0.324017 0  0.0856613 0.2625 0  0.132812 0.0612217 0  0.264062 0.0612217 0  0.198437 0.07598340000000001 0  0.0860223 0.1375 0  0.0794526 0.191089 0  0.285228 0.140397 0  0.298655 0.148737 0  0.31875 0.1 0  0.327335 0.15374 0  0.296875 0.1 0  0.312289 0.155283 0  0.313348 0.135607 0  0.321802 0.173916 0  0.298433 0.134116 0  0.112124 0.2625 0  0.127526 0.259083 0  0.121875 0.3 0  0.0682687 0.241503 0  0.1 0.2875 0  0.117762 0.28125 0  0.107813 0.3 0  0.103906 0.313849 0  0.0778409 0.28125 0  0.1375 0.41 0  0.0862762 0.29375 0  0.08886860000000001 0.24375 0  0.307812 0.338778 0  0.307812 0.292227 0  0.33216 0.279164 0  0.387888 0.266414 0  0.264063 0.31948 0  0.110937 0.07598340000000001 0  0.242188 0.07598340000000001 0  0.319914 0.11839 0  0.340625 0.1 0  0.334448 0.133793 0  0.329687 0.108539 0  0.346259 0.118491 0  0.360334 0.173636 0  0.327539 0.205033 0  0.132812 0.288712 0  0.362436 0.278836 0  0.368105 0.259418 0  0.4125 0.41 0  0.329687 0.324017 0  0.329687 0.292306 0  0.285938 0.318952 0  0.417187 0.338778 0  0.324481 0.14148 0  0.351562 0.106771 0  0.40625 0.1 0  0.341028 0.168342 0  0.319221 0.190479 0  0.335292 0.184501 0  0.305563 0.20794 0  0.220313 0.31948 0  0.132812 0.332772 0  0.0865876 0.311259 0  0.0598995 0.302453 0  0.0906541 0.343255 0  0.353543 0.255837 0  0.36574 0.237633 0  0.405007 0.254279 0  0.275795 0.352123 0  0.4125 0 0  0.35493 0.137394 0  0.366563 0.120618 0  0.35917 0.205246 0  0.198438 0.318952 0  0.0626109 0.263892 0  0.40625 0.3 0  0.354809 0.155936 0  0.386512 0.146872 0  0.373101 0.159939 0  0.384375 0.1 0  0.343394 0.19929 0  0.350682 0.185683 0  0.368101 0.189748 0  0.344016 0.221511 0  0.391108 0.213329 0  0.376279 0.204783 0  0.398843 0.182768 0  0.375804 0.222746 0  0.390665 0.196958 0  0.394004 0.23518 0  0.359883 0.222828 0  0.419908 0.204359 0  0.404243 0.204783 0  0.412615 0.224526 0  0.20625 0.41 0  0.165625 0.325257 0  0.0347982 0.244954 0  0.379558 0.247154 0  0.34165 0.147603 0  0.372264 0.136992 0  0.388988 0.121989 0  0.373437 0.108554 0  0.351562 0.31948 0  0.391367 0.16527 0  0.399572 0.223324 0  0.452011 0.227371 0  0.40877 0.239392 0  0.431491 0.237337 0  0.421224 0.250459 0  0.449619 0.262098 0  0.418865 0.276779 0  0.437063 0.252274 0  0.415673 0.263227 0  0.430988 0.266772 0  0.402767 0.273419 0  0.452967 0.244883 0  0.428125 0.3 0  0.408502 0.286186 0  0.384375 0.3 0  0.392267 0.285807 0  0.465927 0.219339 0  0.43489 0.283846 0  0.376424 0.286289 0  0.625 0.3 0  0.473533 0.205186 0  0.461713 0.255517 0  0.5375 0.3 0  0.465725 0.235405 0  0.44631 0.201425 0  0.471875 0.3 0  0.494307 0.227729 0  0.459448 0.206736 0  0.462294 0.180792 0  0.478933 0.227536 0  0.486793 0.21381 0  0.486322 0.251373 0  0.50065 0.215318 0  0.54005 0.175389 0  0.474633 0.189893 0  0.512916 0.208697 0  0.49531 0.199967 0  0.475889 0.175275 0  0.625 0.1 0  0.459311 0.153933 0  0.513645 0.242704 0  0.392892 0.248539 0  0.374815 0.271913 0  0.365974 0.14871 0  0.395312 0.109184 0  0.417061 0.123981 0  0.483196 0.277003 0  0.381967 0.179632 0  0.429898 0.219374 0  0.433473 0.206165 0  0.43149 0.181038 0  0.444208 0.215487 0  0.472985 0.247309 0  0.49375 0.3 0  0.475579 0.262714 0  0.49916 0.274293 0  0.501175 0.184809 0  0.514164 0.225681 0  0.543648 0.214977 0  0.5341630000000001 0.23481 0  0.527396 0.216171 0  0.5375 0.1 0  0.534548 0.202315 0  0.561545 0.192513 0  0.5494289999999999 0.201221 0  0.570923 0.218346 0  0.412582 0.149833 0  0.489327 0.264745 0  0.502439 0.254775 0  0.462391 0.271166 0  0.496775 0.241732 0  0.5294410000000001 0.268606 0  0.482812 0.291099 0  0.46879 0.285038 0  0.452663 0.284065 0  0.51789 0.257882 0  0.53408 0.252026 0  0.560142 0.243543 0  0.545708 0.243474 0  0.547532 0.229019 0  0.55282 0.265323 0  0.398971 0.153424 0  0.400349 0.135684 0  0.410135 0.168145 0  0.428823 0.161323 0  0.415266 0.183779 0  0.329687 0.0810483 0  0.395312 0.0612217 0  0.373437 0.318952 0  0.439062 0.324017 0  0.561816 0.229354 0  0.585029 0.239287 0  0.431827 0.139854 0  0.446796 0.168929 0  0.351562 0.07598340000000001 0  0.395313 0.318944 0  0.54337 0.150762 0  0.460937 0.31948 0  0.418412 0.137529 0  0.428125 0.1 0  0.442783 0.152332 0  0.450742 0.134294 0  0.373437 0.0805201 0  0.384383 0.342558 0  0.482812 0.318952 0  0.429239 0.127457 0  0.444274 0.117405 0  0.426548 0.113815 0  0.49375 0.1 0  0.488954 0.113984 0  0.457973 0.121842 0  0.471621 0.137346 0  0.515625 0.325257 0  0.48125 0.41 0  0.417187 0.07598340000000001 0  0.496363 0.126778 0  0.479043 0.155715 0  0.439062 0.0805201 0  0.481795 0.126919 0  0.471875 0.1 0  0.489227 0.142159 0  0.515625 0.1 0  0.520062 0.147117 0  0.501244 0.161791 0  0.505431 0.112984 0  0.505344 0.14029 0  0.526563 0.119081 0  0.5181750000000001 0.131908 0  0.539868 0.136937 0  0.460937 0.108383 0  0.474242 0.114415 0  0.460937 0.0810483 0  0.487841 0.167168 0  0.526563 0.0612217 0  0.526563 0.106406 0  0.537619 0.112743 0  0.58125 0.1 0  0.559375 0.1 0  0.482812 0.08105569999999999 0  0.471883 0.0587655 0  0.570312 0.129396 0  0.548437 0.07598340000000001 0  0.504687 0.08105569999999999 0  0.49375 0.0470127 0  0.570312 0.112663 0  0.592798 0.12103 0  0.553986 0.12103 0  0.570312 0.0805201 0  0.48125 0 0  0.114787 0.2 0  0.160769 0.284765 0  0.175816 0.288361 0  0.162602 0.116048 0  0.154687 0.07598340000000001 0  0.176562 0.0805201 0  0.0598995 0.147547 0  0.307812 0.109924 0  0.291279 0.117157 0  0.278491 0.112989 0  0.285937 0.07598340000000001 0  0.307812 0.0805201 0  0.296928 0.196743 0  0.318141 0.218507 0  0.330208 0.227509 0  0.301397 0.225668 0  0.302706 0.241401 0  0.292574 0.21424 0  0.282762 0.230935 0  0.284351 0.244775 0  0.269553 0.23261 0  0.278572 0.217242 0  0.226924 0.342606 0  0.446928 0.185396 0  0.515625 0.3 0  0.504687 0.288879 0  0.515256 0.276534 0  0.529479 0.285328 0  0.58125 0.3 0  0.541969 0.272936 0  0.559375 0.3 0  0.556796 0.282529 0  0.543473 0.287206 0  0.581429 0.267774 0  0.566728 0.271171 0  0.570869 0.255585 0  0.577404 0.283865 0  0.603125 0.3 0  0.597531 0.28035 0  0.570312 0.338778 0  0.592188 0.292492 0  0.603513 0.256094 0  0.614063 0.286265 0  0.610329 0.27064 0  0.632708 0.251285 0  0.657223 0.261594 0  0.618789 0.257807 0  0.614188 0.22987 0  0.630935 0.265614 
[...]
<PointData  Vectors="v"> 
	<DataArray  type="Float64"  Name="v"  NumberOfComponents="3" format="ascii">
0.0 0.0 0.0 0.0 0.0 0.0 0.0 0.0 0.0 0.0 0.0 0.0 0.7973812084570147 -0.18888635670061 0.0 0.8413360726929376 0.19858730698968377 0.0 1.0211359892354495 -0.029831494064430437 0.0 0.9712840652201816 0.029317414357311795 0.0 0.0 0.0 0.0 0.0 0.0 0.0 0.0 0.0 0.0 0.0 0.0 0.0 0.0 0.0 0.0 0.0 0.0 0.0 0.0 0.0 0.0 0.0 0.0 0.0 0.0 0.0 0.0 0.0 0.0 0.0 0.0 0.0 0.0 0.0 0.0 0.0 0.0 0.0 0.0 0.0 0.0 0.0 0.0 0.0 0.0 0.0 0.0 0.0 0.0 0.0 0.0 0.0 0.0 0.0 0.0 0.0 0.0 0.0 0.0 0.0 0.0 0.0 0.0 0.0 0.0 0.0 0.0 0.0 0.0 0.0 0.0 0.0 0.0 0.0 0.0 0.0 0.0 0.0 0.0 0.0 0.0 0.0 0.0 0.0 0.0 0.0 0.0 0.0 0.0 0.0 0.0 0.0 0.0 0.0 0.0 0.0 0.0 0.0 0.0 0.7648487297472928 -0.0024338268392578902 0.0 1.2165594115405312 0.12537455294476177 0.0 1.2273898528571792 -0.11745833752321992 0.0 0.0 0.0 0.0 1.3015708138833146 -0.07620225270012468 0.0 1.3156484011876424 0.09101927250855195 0.0 0.0 0.0 0.0 0.0 0.0 0.0 1.0 0.0 0.0 0.0 0.0 0.0 0.0 0.0 0.0 0.0 0.0 0.0 0.8469973085489134 -0.2291395540903563 0.0 1.1543307322123364 -0.30191550414253343 0.0 0.8681375318162465 0.2244917036529941 0.0 1.1692066207265437 0.30876271368292574 0.0 0.43210777703699993 -0.00547792443541154 0.0 0.16586611040548177 0.027379495908408106 0.0 0.1712065982196211 -0.023251384400959647 0.0 -0.04681065748078111 -0.0633148866237218 0.0 -0.049445635530310623 0.06475959958875875 0.0 0.33815291323761537 -0.2831550597515132 0.0 0.8734834063785493 -0.6727556863259706 0.0 0.6511182780804725 -0.694552161129624 0.0 1.2433217689515628 -0.6028332597241769 0.0 0.30287550770001154 0.0029093359355352472 0.0 0.33393136554559116 0.268818645043445 0.0 0.6527251802056149 0.672249594072009 0.0 1.2212191040625964 0.6033103523533684 0.0 0.2909931805748952 0.000802069765922905 0.0 1.2833695325823657 0.1931780460621667 0.0 -0.020251224041956138 0.054597871736299465 0.0 1.2724738741710733 -0.17580358523672313 0.0 -0.01726577331008472 -0.053042091940410756 0.0 -0.035975364996785296 -0.02520006891095215 0.0 1.2242694892161468 -0.398562491943073 0.0 1.128438638537495 -0.7307097648351248 0.0 0.8712038769405701 0.777611503713322 0.0 1.2317720184721306 0.398919246226228 0.0 0.9101025518263051 0.16468564575551717 0.0 -0.03775528832042258 0.06952289499223005 0.0 0.9171282463466064 -0.1605255588090689 0.0 -0.03829927423218219 -0.06814770646102779 0.0 -0.030690347823420873 0.02299476709005445 0.0 1.0609467849958263 0.7281419547566069 0.0 0.44801507661899104 0.5317609202102456 0.0 0.5375050197786293 0.03196023990090408 0.0 0.07576225214177594 0.049563941052325866 0.0 0.5449780220002572 -0.030795176800511425 0.0 0.08134650876582122 -0.049971763623722465 0.0 -0.11082883821371535 0.006281886811618813 0.0 0.969328529033878 0.29794113759723007 0.0 1.253017794664548 0.24570969037226095 0.0 1.2963473545438875 0.2036327419725126 0.0 1.2255247836967762 -0.2440417660138819 0.0 1.292060122388018 -0.1969921735051406 0.0 1.3051092791377614 0.25405394846645313 0.0 1.3069869008330555 -0.24655649811570152 0.0 0.4497753089230021 -0.550667271553709 0.0 0.8058641488284786 -0.13924901265296707 0.0 0.6791693924531143 -0.4196384213409623 0.0 0.891472170694196 0.591475448836928 0.0 0.8032419282269073 0.1402338353062825 0.0 0.6844961739566247 0.4180124211128795 0.0 1.278724029880075 -0.04722138728152659 0.0 0.1924618860646194 0.033703412931902724 0.0 0.20745025366761138 -0.027366939037943044 0.0 -0.08453353376041936 -0.03571651930294211 0.0 1.3027197191327997 0.42795743652487517 0.0 0.8778687052938204 0.06753981901452623 0.0 1.2971401626808265 -0.4335964683126508 0.0 0.8939717421755664 -0.0605968971959609 0.0 1.3332172893078809 0.3597765937679093 0.0 1.2708683267842786 0.34558405301403483 0.0 1.3278070606188008 -0.3576559092972462 0.0 1.2609197212198562 -0.3269084096677035 0.0 0.588389043392361 -0.1618011345442827 0.0 0.8031874265935935 -0.3297153358928278 0.0 1.0316912285680093 0.5962451933814009 0.0 0.5963969768700803 0.14905566575300064 0.0 0.8191447340594762 0.3273508633894086 0.0 0.8756571126057571 0.03589981914899578 0.0 0.9010293367143948 -0.02675668263646661 0.0 -0.038456469963344196 -0.05904899344839347 0.0 1.3100440865126395 0.13444016333700812 0.0 0.9339503994131424 -0.3052410677069647 0.0 1.2915877407870855 -0.11973135762068332 0.0 0.4104667304286233 0.02760178360939042 0.0 0.4368001959892114 -0.01833713786825568 0.0 -0.125087262876055 -0.029494630939085546 0.0 1.0627072565221578 0.322911084949801 0.0 0.9527680914671122 0.3797018489550329 0.0 1.0300657687365775 0.07063024862553971 0.0 0.9217597286028704 -0.04853879577218907 0.0 1.2747574294712094 0.05268764652285319 0.0 1.0331190897930227 -0.3179189352432291 0.0 1.0979899015059364 -0.557942348237965 0.0 0.9400827101981616 -0.37959657836579463 0.0 1.0119117260341675 -0.42465212236408134 0.0 0.9471961459906497 -0.5378181934746469 0.0 0.8743490705799474 -0.40145164961100027 0.0 1.310737669551683 0.15671107026569814 0.0 1.3011317074099678 -0.14721591544753426 0.0 0.8561253025205763 -0.23021945120428539 0.0 0.8849735284362167 -0.3026490338533094 0.0 0.8586759784295037 -0.2944781511189063 0.0 0.8534398432808966 -0.24545225519682662 0.0 0.8574296449551483 -0.24469417253549228 0.0 0.9019971364752005 -0.30873715534248686 0.0 1.316424412272316 0.22765849512391706 0.0 1.1743578237647636 -0.041388729017085756 0.0 1.3277399445159348 0.28831273393304196 0.0 1.306546874159666 -0.2101616463735423 0.0 0.0 0.0 0.0 0.0 0.0 0.0 1.3099252863319986 -0.277005414809769 0.0 0.719744512619876 -0.2675104635020472 0.0 0.8244873417540826 -0.20929463407827195 0.0 0.8736853003977428 -0.10970948157783368 0.0 0.8655129982921088 -0.16180090822089468 0.0 0.9375 0.0 0.0 0.7500000000000001 0.0 0.0 0.7276883905403826 0.26303004801523233 0.0 0.8282772455804612 0.19667878024292196 0.0 0.7499999999999999 0.0 0.0 0.8726412093025039 0.124911302932472 0.0 0.930178711639518 0.04113584294899604 0.0 0.8509548319976049 0.043416434931520476 0.0 -0.09424582737899807 -0.041619486369744475 0.0 0.00959610698370691 -0.04084385334141469 0.0 1.1386051246338063 0.5375047810532573 0.0 1.0332906349282074 0.45877703883532256 0.0 0.884024959891861 0.2380882835125965 0.0 1.2516650946248806 0.08546371857954047 0.0 1.3027770261598834 0.014364275284572502 0.0 0.2903608051859087 0.02002125335348068 0.0 1.3165107066750898 0.04975619491514026 0.0 0.8226810827840839 0.014752083654681353 0.0 1.2321029345377035 0.05448239372159468 0.0 0.5891924967425494 -0.012864403338499891 0.0 0.5535044968662081 0.002648274528950653 0.0 -0.0006876624386209467 0.02780380343430268 0.0 1.0772486759471893 -0.0002782808617916993 0.0 0.23530131091646186 0.01309048464159911 0.0 0.14619714588823746 0.0021717448353981914 0.0 0.2672025405774631 0.0029037060982665666 0.0 0.7936935129957581 -0.04081000836488923 0.0 0.585493392439071 -0.022800244646807657 0.0 1.2969844728273254 -0.02053201586218414 0.0 0.6067464436950512 0.029417807929820832 0.0 1.261000301216085 -0.08547903242925785 0.0 0.08742712711021594 -0.043049226354081246 0.0 1.1519836333346896 0.11519393683601191 0.0 0.885422290246564 0.17456025428915745 0.0 0.6959427255036714 -0.15608049141160182 0.0 1.0458216654682637 -0.0578650526970104 0.0 1.0177149274563555 -0.18421823581363322 0.0 0.8664299442754755 -0.1790413798264734 0.0 0.8778811373889824 -0.026085012066877838 0.0 0.4306670192037036 -0.015364537552096753 0.0 0.23845477910209134 -0.02096081872437035 0.0 1.2921814156843079 0.0004751262175060628 0.0 0.1880914330825857 -0.011048801443574433 0.0 1.303003415785517 -0.03643445259780973 0.0 0.14025838640252702 -0.0231271176342593 0.0 0.6065772363048862 0.012174913163676351 0.0 -0.07353493309354689 -0.02808294245223375 0.0 0.6395252050705474 0.0005561524164081459 0.0 0.8845568178666146 0.29015077149925195 0.0 0.8881137074926959 0.4040307807987726 0.0 0.8866968375961496 0.2568658463442681 0.0 0.9141238587856848 0.10687595306181895 0.0 0.8672948483568248 0.21461157337449513 0.0 0.909398404865337 0.29331359116395755 0.0 0.858498701873664 0.22296932818201481 0.0 0.8016833821703708 0.17337506556450957 0.0 0.8683529406282201 0.1558270186184535 0.0 0.0 0.0 0.0 0.8423645671239427 0.1695414182847378 0.0 0.8738658168255735 0.16720043709726015 0.0 1.1198803703298084 0.013112298582341659 0.0 1.2699651091881048 0.022319782304973303 0.0 1.0155013798612746 -0.021540612850913743 0.0 0.7260758171481984 -0.06779438222320686 0.0 1.2148060872173354 0.08923296891249746 0.0 0.7160773426363557 -0.16458265902742822 0.0 1.1241092768097138 -0.11105207963304575 0.0 1.0991286878200428 0.011865408261912866 0.0 1.2869658428720059 0.029340947238249697 0.0 0.6850868414097098 0.029761640145740703 0.0 1.2496096153021856 0.019864486451466212 0.0 1.0899133967472407 0.04327204255273139 0.0 -0.065529701270515 -0.011054380763358872 0.0 -0.19376612911284707 0.0034050717623864426 0.0 0.9505749282987301 0.32641644348742216 0.0 1.0100317454973924 -0.057144256691960424 0.0 0.5164625156073354 -0.04020876385648786 0.0 0.0 0.0 0.0 1.2226437281605067 -0.004220585262110393 0.0 1.2549213420018133 -0.013999930494798144 0.0 1.234898702433503 0.05981870504719382 0.0 1.1052846326287495 -0.07241595599781768 0.0 0.45365609406236757 0.006340893072864009 0.0 1.2488670302879 0.04670626615495948 0.0 1.2502133533515052 0.0952446534888056 0.0 -0.012198631445626287 -0.017397375328010414 0.0 -0.16865666312246172 -0.016165847171879 0.0 -0.15758102720823852 -0.018584708799640484 0.0 -0.15537780860012013 0.012847741679266356 0.0 1.1527682808067952 0.1651697820549707 0.0 0.7732946946767982 0.18320349751885387 0.0 0.7777736346080257 0.1466793812996399 0.0 0.7859507409564367 0.10241918238309977 0.0 0.6180238076507629 0.10407848368603896 0.0 0.406867864198475 -0.02248998121566716 0.0 0.069871279643923 -0.006772758908759569 0.0 0.46025461190182426 -0.05998089853858908 0.0 0.9915393346161703 0.042589855868541866 0.0 0.0 0.0 0.0 0.6151939926825437 0.03941746542032982 0.0 1.0469214639354916 0.06512765560330977 0.0 -0.22437891269037172 -0.0017621387289540544 0.0 1.0804213182801 0.2212001140851978 0.0 0.9013942238903854 0.10867651847980415 0.0 1.2576519945365525 -0.0903569504408827 0.0 0.1907448587044721 0.00415560732438631 0.0 0.4395182642432395 0.045656470668865606 0.0 0.14739360955449443 0.009596151161442325 0.0 1.2659880606939098 0.0764755871441594 0.0 -0.21506748930820105 -0.004808965285387023 0.0 -0.17323421041053758 -0.014297981157062201 0.0 -0.20402530749745842 -0.009948607008278114 0.0 -0.12977901064602598 0.011566989755242112 0.0 -0.19850279910130864 -0.006234774016178147 0.0 -0.23387564695407004 -0.004141344596220152 0.0 -0.14506773289086994 -0.0008427582126636869 0.0 -0.11987892997115342 -0.0029167209594640497 0.0 -0.23575697557758274 -0.006683080526490373 0.0 0.06163958182952433 -0.020530780520307577 0.0 -0.1201983251167019 0.004786461747036866 0.0 -0.23176521666510191 -0.007987086808815578 0.0 -0.23651666213859637 -0.007405625548298495 0.0 -0.07650869098357652 -0.019436882519948587 0.0 0.0 0.0 0.0 0.9377914564797928 0.22879289272515974 0.0 0.9517352060631455 0.03866047129392166 0.0 0.2594264810597925 -0.02839868988206197 0.0 0.33586913058902884 0.00920198334767902 0.0 0.6567149601783426 0.05396790753374172 0.0 1.0330368411336655 0.08459333121188509 0.0 1.2265353030260377 0.07156688422985223 0.0 1.2486489174030369 -0.026541185808783493 0.0 0.08413127373794088 0.013191206654638134 0.0 -0.1016232435231723 -0.012794522865238054 0.0 0.016978616413064373 -0.0373564319568334 0.0 0.1558994021469979 -0.03578675168882991 0.0 0.1554964952269071 -0.045234263775976655 0.0 0.4052920446632579 -0.06371609399963807 0.0 0.7231368278268199 -0.10397534042696005 0.0 0.9952647128332707 -0.10237329078509294 0.0 0.47818661291276643 -0.07749035634680325 0.0 0.6918372728148288 -0.08383726483554994 0.0 0.7983122130911554 -0.0998039082478842 0.0 0.9130593456035713 -0.0885174386934767 0.0 0.34883321015862806 -0.07059035572620852 0.0 1.2426456624047313 -0.10536771512816491 0.0 1.1461567196450415 -0.09805980101207339 0.0 1.2706608541972522 -0.06973768748806299 0.0 1.1434551743493029 -0.08404144647834434 0.0 -0.07519824450607349 -0.02710809988838432 0.0 1.118898645354044 -0.11589607743273835 0.0 1.1529429601777166 -0.07133861172507976 0.0 1.107441353737074 -0.10499395964000509 0.0 -0.17372434335531292 -0.005215646423712621 0.0 0.5988770235511387 -0.09655976745498704 0.0 1.1662996583135947 -0.13063716856698987 0.0 0.18339903594193563 -0.05668392591396467 0.0 -0.21413388325594102 -0.0038139414482305325 0.0 1.2121560745492361 -0.1252739439890645 0.0 0.10408778807559871 -0.048664560969458814 0.0 -0.1896346546398674 -0.008765686086103421 0.0 -0.04085039076085087 0.031955078551513236 0.0 0.06786548382203574 -0.0448752695304315 0.0 -0.09901645687575253 -0.019620143259275368 0.0 0.5596695055390161 -0.09830789271203785 0.0 -0.056811851362306424 -0.02317297829362586 0.0 0.21578707719785958 0.07142858551424985 0.0 -0.12384594377283013 0.01991112709567954 0.0 -0.08495317786089703 -0.009027473910476327 0.0 -0.13931585596008972 0.006995640414226317 0.0 0.07050832819313692 0.04963130329798756 0.0 1.065200643063159 0.09621382331423287 0.0 0.449909971192372 0.08676538694128048 0.0 0.4355224659146273 -0.0862069575712314 0.0 0.3111934361435096 -0.04080711266723215 0.0 0.8461646650045356 -0.062208560014125155 0.0 0.35737547335262837 0.02532016806870757 0.0 1.2122580407377508 0.09377650411252725 0.0 1.0146252422251123 0.10968383092599941 0.0 1.0394576967877942 -0.1328630634698308 0.0 -0.1216221999527653 -0.005249077686444213 0.0 -0.12290041982379955 -0.01978466463637914 0.0 -0.218105289567513 -0.008996389518997666 0.0 -0.0930539053551157 0.01571188920090868 0.0 -0.14772256917928292 -0.018474190473335927 0.0 0.4432154727454472 -0.08487043271042073 0.0 1.196888217291084 -0.12827540554854927 0.0 0.7798787766565298 -0.1152555282042296 0.0 1.0118948508326264 -0.13475782389672925 0.0 -0.016931079158579655 0.03960554152154544 0.0 0.11426685084726083 -0.04708744190965747 0.0 0.03767506392341224 -0.023357336987082186 0.0 0.32621784945933685 -0.07132458057159609 0.0 0.011658798885052843 -0.025624124398047766 0.0 1.139850003573541 0.13481513496119119 0.0 -0.056183250181282805 0.006922699705834667 0.0 0.04546316659424206 0.03229958029623837 0.0 -0.020287609835869202 0.010369511112203474 0.0 0.14581014645421936 -0.03284651504711309 0.0 0.4320378261197389 0.059712294937180554 0.0 0.8405547957827929 -0.12277511557793516 0.0 0.6626261982236163 -0.10944506440943366 0.0 0.9293709587172618 -0.12197888524450962 0.0 0.37744753624434263 -0.08024877541914736 0.0 0.9522171027860751 -0.13227079137997608 0.0 1.1768571535894332 -0.1330991567391939 0.0 1.1335408586214406 -0.13111389761654674 0.0 1.1220410468947215 -0.12393998044606482 0.0 0.7525131164458301 -0.11768739807249802 0.0 0.666949286351806 -0.108660208913547 0.0 0.5549743713414164 -0.09280696020187205 0.0 0.5219369883157908 -0.09187797232938139 0.0 0.25127830576692434 -0.058247921819979655 0.0 0.9262767557708463 -0.12801411456009387 0.0 0.32258488034940935 0.040472789807397686 0.0 0.7408984486685409 0.07947874069431003 0.0 0.06511956175289561 0.021175921274805325 0.0 0.22587506547806466 0.04790378917504211 0.0 -0.14278940504247953 0.004963878564538425 0.0 1.2288425916566441 0.012934735692222438 0.0 1.0808341698501693 0.06572375212636875 0.0 1.2466351516706007 -0.05052253628957491 0.0 1.1832396750043814 -0.0955840807217472 0.0 0.2922843966556461 -0.059968641010733216 0.0 0.5273843352093515 -0.08360742199560747 0.0 0.7024749354522557 0.09680074187156053 0.0 0.11943716654722951 0.04437056755621548 0.0 1.1961142769757627 0.036087579272313056 0.0 1.2341108062299788 -0.0697741239340084 0.0 0.690310920755882 0.12395231623144665 0.0 1.1867677374591235 -0.107822653773189 0.0 0.7284723530309328 0.09032525067991355 0.0 1.2348636350306275 0.11321281510879407 0.0 0.44572639656117197 0.07854728125548838 0.0 0.8556127607822898 0.12148124255984935 0.0 1.2185527516552277 0.05726347442827669 0.0 1.0983097071891748 -0.05274620370337648 0.0 1.1704259222560387 -0.11480454901344958 0.0 0.961142024353833 0.11367407947517277 0.0 1.1249627398247724 0.13129708111031313 0.0 1.1664445077287953 0.12034749109665092 0.0 1.180453738274281 0.13858263076003222 0.0 1.15044028831089 0.14834496616757922 0.0 1.0754243086502446 0.1374490461020817 0.0 0.8265059998866771 0.1288209141436415 0.0 1.1013904745198921 -0.11080306539626056 0.0 0.0 0.0 0.0 1.1676079088980922 0.0895126426162631 0.0 1.0272050418562255 0.1481017372887255 0.0 0.45725830787890254 0.09546665850834384 0.0 1.17615427927539 0.10649013034325326 0.0 1.0179784210728975 0.14521993926391014 0.0 1.1996208162175241 0.13303012190488078 0.0 0.7614100568649189 0.12878588986959066 0.0 1.159160086188673 0.13806504984726392 0.0 0.71862584416272 0.12872371846833272 0.0 0.3834080682685449 0.09296713166243697 0.0 1.1469034743059328 0.1491414857377468 0.0 0.8233282668712227 0.13743991091837293 0.0 1.1056932068647516 0.14973611847067217 0.0 0.9720777229404785 0.14841882433748935 0.0 0.9169289708238395 0.1428195635707713 0.0 1.1926429319451852 0.13743283990806346 0.0 1.1510361311328088 0.14414486085722658 0.0 1.1557575427799907 0.11694962889880443 0.0 0.24442346677101467 0.07346061819690375 0.0 0.9287561638665542 0.09145952686140146 0.0 1.151253302162122 0.1434466048676307 0.0 1.1307941383064688 0.1446679314110082 0.0 1.0994225257478965 0.11878875829443303 0.0 1.1181919797451823 0.12881191625653485 0.0 1.128806530769758 0.11953002669077181 0.0 0.9940398286190787 0.08693840459959319 0.0 1.0216317718950694 0.1368670260371817 0.0 1.0209658197582323 0.1054337159919463 0.0 1.1087908999593532 0.11897911455592641 0.0 0.816089880943819 0.07336349489273165 0.0 1.1118977393929055 0.13280307847512368 0.0 1.076439038333734 0.1257070893360337 0.0 1.0870827971575774 0.14312508493903098 0.0 1.0258600951309973 0.10351910492161158 0.0 0.0 0.0 0.0 0.6487149331845097 -0.006863061153146082 0.0 1.0913504130445195 0.4097182605102884 0.0 1.1834491313084086 0.38631058316052175 0.0 1.0978139644097655 -0.4026808896547722 0.0 0.8594214639756542 -0.20706085760531162 0.0 0.9709933199967847 -0.22496634990654762 0.0 0.8936929519905994 -0.0833721508835874 0.0 1.2574186191356926 -0.013884279842977163 0.0 1.1632159675445821 -0.026795623997210374 0.0 1.2479702877807235 -0.056564930704373226 0.0 1.1781554330263717 -0.038251667149802014 0.0 1.2197381786519939 -0.012242732367035178 0.0 -0.14262441993807523 -0.008806546637704806 0.0 -0.1338905894266389 0.02262988553768538 0.0 -0.07385675421177393 0.01979211288739927 0.0 -0.07770766526250703 0.03866296617028282 0.0 0.06662149025594506 0.036059021827511605 0.0 -0.11584798892052098 0.03017530248683319 0.0 -0.038679905128460756 0.05792760622143652 0.0 0.08977648605798802 0.045042349595624004 0.0 -0.03302604778673156 0.07040710445129053 0.0 -0.08165557295831087 0.04712498805480834 0.0 0.9884497226005222 0.1187952214178199 0.0 -0.12312252564220669 0.016452373771056118 0.0 1.1816531291724868 -0.130465335632875 0.0 1.1566488419801144 -0.13758750037054915 0.0 1.0488668436138282 -0.13687267711507944 0.0 1.1297838332880048 -0.13773208492883068 0.0 1.1367155369310618 -0.12064899411921155 0.0 1.0187506237853055 -0.13475536013695158 0.0 1.1512568892082482 -0.12589558711046048 0.0 1.108522173137254 -0.13448346162242814 0.0 1.136262076551809 -0.1354369570446345 0.0 0.9810813242018603 -0.12499353754211578 0.0 1.011655394643585 -0.13018036761469953 0.0 0.7942845320646486 -0.11405676953869712 0.0 1.1129374822491644 -0.13017854375968554 0.0 1.1213855469596137 -0.11397483968657514 0.0 1.0922434231772342 -0.12396621357434555 0.0 0.9522828862589143 -0.08909657856240125 0.0 1.1313700007062617 -0.1217549523256963 0.0 0.8453340237956105 -0.1092553425925322 0.0 1.1119019600456477 -0.11621006599394755 0.0 1.0247446078668885 -0.11843700418492317 0.0 0.8101511503819341 -0.096570591804737 0.0 0.9578078298648749 -0.0966499860405096 0.0 0.88584120759824 -0.1071665164531967 0.0 0.4237169378798827 -0.06191563524927479 0.0 0.9854719112394583 -0.10877972297064224 0.0 0.6637485496794986 -0.08767478604324624 0.0 1.08138367511443