<?xml version="1.0"?>
<VTKFile type="UnstructuredGrid"  version="0.1"  >
<UnstructuredGrid>
<Piece  NumberOfPoints="1289" NumberOfCells="2413">
<Points>
<DataArray  type="Float64"  NumberOfComponents="3"  format="ascii">0 0 0  0 0.41 0  2.2 0.41 0  2.2 0 0  0.1 0.1 0  0.1 0.3 0  0.8 0.3 0  0.8 0.1 0  0.25 0.2 0  0.248976 0.210065 0  0.245948 0.219718 0  0.241038 0.228563 0  0.234448 0.23624 0  0.226448 0.242432 0  0.217365 0.246888 0  0.207571 0.249423 0  0.197468 0.249936 0  0.187467 0.248404 0  0.17798 0.24489 0  0.169395 0.239539 0  0.162062 0.232569 0  0.156283 0.224265 0  0.152293 0.214968 0  0.150257 0.205058 0  0.150257 0.194942 0  0.152293 0.185032 0  0.156283 0.175735 0  0.162062 0.167431 0  0.169395 0.160461 0  0.17798 0.15511 0  0.187467 0.151596 0  0.197468 0.150064 0  0.207571 0.150577 0  0.217365 0.153112 0  0.226448 0.157568 0  0.234448 0.16376 0  0.241038 0.171437 0  0.245948 0.180282 0  0.248976 0.189935 0  1.1 0 0  1.1 0.41 0  0.1 0.2 0  0.45 0.1 0  0.45 0.3 0  0.55 0 0  0.275 0.1 0  0.275 0.3 0  0.275 0 0  0.55 0.41 0  0 0.205 0  0.825 0 0  0.825 0.41 0  0.275 0.41 0  0.1 0.15 0  0.1875 0.1 0  0.1 0.25 0  0.1875 0.3 0  0.132322 0.2 0  0.241426 0.253518 0  0.241426 0.146482 0  0.264574 0.17974 0  0.264574 0.22026 0  0.138434 0.187348 0  0.153372 0.150948 0  0.148413 0.164094 0  0.176495 0.136535 0  0.22768 0.143571 0  0.138434 0.212652 0  0.148413 0.235906 0  0.176495 0.263465 0  0.22768 0.256429 0  0.23125 0.3 0  0.24769 0.24094 0  0.23125 0.1 0  0.24769 0.15906 0  0.26253 0.193641 0  0.190482 0.137872 0  0.166753 0.146661 0  0.157737 0.244461 0  0.190482 0.262128 0  0.203107 0.261264 0  0.253635 0.22977 0  0.203107 0.138736 0  0.253635 0.17023 0  0.261028 0.206206 0  0.167707 0.251809 0  0.143629 0.224191 0  0.215302 0.2591 0  0.270465 0.245894 0  0.215302 0.1409 0  0.270465 0.154106 0  0.284052 0.202587 0  0.14375 0.3 0  0.209375 0.3 0  0.225966 0.278501 0  0.209375 0.1 0  0.225966 0.121499 0  0.211613 0.273759 0  0.211613 0.126241 0  0.143629 0.175809 0  0.1 0.175 0  0.133484 0.164832 0  0.144491 0.249539 0  0.1 0.225 0  0.133484 0.235168 0  0.3625 0.3 0  0.25691 0.253381 0  0.25691 0.146619 0  0.277205 0.188698 0  0.184724 0.275712 0  0.237372 0.268285 0  0.184724 0.124288 0  0.237372 0.131715 0  0.197578 0.273149 0  0.193656 0.286994 0  0.197578 0.126851 0  0.193656 0.113006 0  0.122953 0.187671 0  0.118362 0.153758 0  0.155372 0.258107 0  0.122953 0.212329 0  0.118362 0.246242 0  0.276394 0.27264 0  0.276394 0.12736 0  0.280965 0.170013 0  0.253125 0.3 0  0.14375 0.1 0  0.253125 0.1 0  0.269489 0.26014 0  0.269489 0.13986 0  0.303639 0.184297 0  0.165625 0.3 0  0.134742 0.273113 0  0.257831 0.274737 0  0.255279 0.128499 0  0.3625 0.1 0  0.165625 0.1 0  0.162031 0.132368 0  0.134955 0.126405 0  0.149334 0.125568 0  0.142936 0.139597 0  0.12695 0.140259 0  0.242514 0.285501 0  0.242514 0.114499 0  0.1 0.125 0  0.117483 0.12555 0  0.11154 0.139776 0  0.121875 0.1 0  0.109143 0.1125 0  0.126805 0.114 0  0.220313 0.29129 0  0.351562 0.287369 0  0.207222 0.2866 0  0.220312 0.10871 0  0.1375 0 0  0.20625 0 0  0.207222 0.1134 0  0.11722 0.17118 0  0.1 0.1625 0  0.0778409 0.16875 0  0.0862762 0.15625 0  0 0.15375 0  0 0.1025 0  0.11722 0.22882 0  0.1 0.2375 0  0 0.3075 0  0.0862762 0.23125 0  0.0598995 0.222547 0  0.0860223 0.2125 0  0.289584 0.181469 0  0.300267 0.16446 0  0.163832 0.269071 0  0.149597 0.273325 0  0.1 0.275 0  0.268498 0.285953 0  0.31875 0.3 0  0.294154 0.254672 0  0.296875 0.3 0  0.293558 0.271845 0  0.285095 0.286799 0  0.324298 0.264316 0  0.307866 0.263745 0  0.317093 0.234901 0  0.315485 0.281219 0  0.316547 0.250625 0  0.344693 0.243731 0  0.331592 0.251147 0  0.35129 0.270663 0  0.338689 0.263683 0  0.340625 0.3 0  0.249849 0.264383 0  0.265097 0.11422 0  0.284688 0.156136 0  0.242188 0.324017 0  0.0856613 0.2625 0  0.132812 0.0612217 0  0.264062 0.0612217 0  0.198437 0.07598340000000001 0  0.0860223 0.1375 0  0.0794526 0.191089 0  0.285228 0.140397 0  0.298655 0.148737 0  0.31875 0.1 0  0.327335 0.15374 0  0.296875 0.1 0  0.312289 0.155283 0  0.313348 0.135607 0  0.321802 0.173916 0  0.298433 0.134116 0  0.112124 0.2625 0  0.127526 0.259083 0  0.121875 0.3 0  0.0682687 0.241503 0  0.1 0.2875 0  0.117762 0.28125 0  0.107813 0.3 0  0.103906 0.313849 0  0.0778409 0.28125 0  0.1375 0.41 0  0.0862762 0.29375 0  0.08886860000000001 0.24375 0  0.307812 0.338778 0  0.307812 0.292227 0  0.33216 0.279164 0  0.387888 0.266414 0  0.264063 0.31948 0  0.110937 0.07598340000000001 0  0.242188 0.07598340000000001 0  0.319914 0.11839 0  0.340625 0.1 0  0.334448 0.133793 0  0.329687 0.108539 0  0.346259 0.118491 0  0.360334 0.173636 0  0.327539 0.205033 0  0.132812 0.288712 0  0.362436 0.278836 0  0.368105 0.259418 0  0.4125 0.41 0  0.329687 0.324017 0  0.329687 0.292306 0  0.285938 0.318952 0  0.417187 0.338778 0  0.324481 0.14148 0  0.351562 0.106771 0  0.40625 0.1 0  0.341028 0.168342 0  0.319221 0.190479 0  0.335292 0.184501 0  0.305563 0.20794 0  0.220313 0.31948 0  0.132812 0.332772 0  0.0865876 0.311259 0  0.0598995 0.302453 0  0.0906541 0.343255 0  0.353543 0.255837 0  0.36574 0.237633 0  0.405007 0.254279 0  0.275795 0.352123 0  0.4125 0 0  0.35493 0.137394 0  0.366563 0.120618 0  0.35917 0.205246 0  0.198438 0.318952 0  0.0626109 0.263892 0  0.40625 0.3 0  0.354809 0.155936 0  0.386512 0.146872 0  0.373101 0.159939 0  0.384375 0.1 0  0.343394 0.19929 0  0.350682 0.185683 0  0.368101 0.189748 0  0.344016 0.221511 0  0.391108 0.213329 0  0.376279 0.204783 0  0.398843 0.182768 0  0.375804 0.222746 0  0.390665 0.196958 0  0.394004 0.23518 0  0.359883 0.222828 0  0.419908 0.204359 0  0.404243 0.204783 0  0.412615 0.224526 0  0.20625 0.41 0  0.165625 0.325257 0  0.0347982 0.244954 0  0.379558 0.247154 0  0.34165 0.147603 0  0.372264 0.136992 0  0.388988 0.121989 0  0.373437 0.108554 0  0.351562 0.31948 0  0.391367 0.16527 0  0.399572 0.223324 0  0.452011 0.227371 0  0.40877 0.239392 0  0.431491 0.237337 0  0.421224 0.250459 0  0.449619 0.262098 0  0.418865 0.276779 0  0.437063 0.252274 0  0.415673 0.263227 0  0.430988 0.266772 0  0.402767 0.273419 0  0.452967 0.244883 0  0.428125 0.3 0  0.408502 0.286186 0  0.384375 0.3 0  0.392267 0.285807 0  0.465927 0.219339 0  0.43489 0.283846 0  0.376424 0.286289 0  0.625 0.3 0  0.473533 0.205186 0  0.461713 0.255517 0  0.5375 0.3 0  0.465725 0.235405 0  0.44631 0.201425 0  0.471875 0.3 0  0.494307 0.227729 0  0.459448 0.206736 0  0.462294 0.180792 0  0.478933 0.227536 0  0.486793 0.21381 0  0.486322 0.251373 0  0.50065 0.215318 0  0.54005 0.175389 0  0.474633 0.189893 0  0.512916 0.208697 0  0.49531 0.199967 0  0.475889 0.175275 0  0.625 0.1 0  0.459311 0.153933 0  0.513645 0.242704 0  0.392892 0.248539 0  0.374815 0.271913 0  0.365974 0.14871 0  0.395312 0.109184 0  0.417061 0.123981 0  0.483196 0.277003 0  0.381967 0.179632 0  0.429898 0.219374 0  0.433473 0.206165 0  0.43149 0.181038 0  0.444208 0.215487 0  0.472985 0.247309 0  0.49375 0.3 0  0.475579 0.262714 0  0.49916 0.274293 0  0.501175 0.184809 0  0.514164 0.225681 0  0.543648 0.214977 0  0.5341630000000001 0.23481 0  0.527396 0.216171 0  0.5375 0.1 0  0.534548 0.202315 0  0.561545 0.192513 0  0.5494289999999999 0.201221 0  0.570923 0.218346 0  0.412582 0.149833 0  0.489327 0.264745 0  0.502439 0.254775 0  0.462391 0.271166 0  0.496775 0.241732 0  0.5294410000000001 0.268606 0  0.482812 0.291099 0  0.46879 0.285038 0  0.452663 0.284065 0  0.51789 0.257882 0  0.53408 0.252026 0  0.560142 0.243543 0  0.545708 0.243474 0  0.547532 0.229019 0  0.55282 0.265323 0  0.398971 0.153424 0  0.400349 0.135684 0  0.410135 0.168145 0  0.428823 0.161323 0  0.415266 0.183779 0  0.329687 0.0810483 0  0.395312 0.0612217 0  0.373437 0.318952 0  0.439062 0.324017 0  0.561816 0.229354 0  0.585029 0.239287 0  0.431827 0.139854 0  0.446796 0.168929 0  0.351562 0.07598340000000001 0  0.395313 0.318944 0  0.54337 0.150762 0  0.460937 0.31948 0  0.418412 0.137529 0  0.428125 0.1 0  0.442783 0.152332 0  0.450742 0.134294 0  0.373437 0.0805201 0  0.384383 0.342558 0  0.482812 0.318952 0  0.429239 0.127457 0  0.444274 0.117405 0  0.426548 0.113815 0  0.49375 0.1 0  0.488954 0.113984 0  0.457973 0.121842 0  0.471621 0.137346 0  0.515625 0.325257 0  0.48125 0.41 0  0.417187 0.07598340000000001 0  0.496363 0.126778 0  0.479043 0.155715 0  0.439062 0.0805201 0  0.481795 0.126919 0  0.471875 0.1 0  0.489227 0.142159 0  0.515625 0.1 0  0.520062 0.147117 0  0.501244 0.161791 0  0.505431 0.112984 0  0.505344 0.14029 0  0.526563 0.119081 0  0.5181750000000001 0.131908 0  0.539868 0.136937 0  0.460937 0.108383 0  0.474242 0.114415 0  0.460937 0.0810483 0  0.487841 0.167168 0  0.526563 0.0612217 0  0.526563 0.106406 0  0.537619 0.112743 0  0.58125 0.1 0  0.559375 0.1 0  0.482812 0.08105569999999999 0  0.471883 0.0587655 0  0.570312 0.129396 0  0.548437 0.07598340000000001 0  0.504687 0.08105569999999999 0  0.49375 0.0470127 0  0.570312 0.112663 0  0.592798 0.12103 0  0.553986 0.12103 0  0.570312 0.0805201 0  0.48125 0 0  0.114787 0.2 0  0.160769 0.284765 0  0.175816 0.288361 0  0.162602 0.116048 0  0.154687 0.07598340000000001 0  0.176562 0.0805201 0  0.0598995 0.147547 0  0.307812 0.109924 0  0.291279 0.117157 0  0.278491 0.112989 0  0.285937 0.07598340000000001 0  0.307812 0.0805201 0  0.296928 0.196743 0  0.318141 0.218507 0  0.330208 0.227509 0  0.301397 0.225668 0  0.302706 0.241401 0  0.292574 0.21424 0  0.282762 0.230935 0  0.284351 0.244775 0  0.269553 0.23261 0  0.278572 0.217242 0  0.226924 0.342606 0  0.446928 0.185396 0  0.515625 0.3 0  0.504687 0.288879 0  0.515256 0.276534 0  0.529479 0.285328 0  0.58125 0.3 0  0.541969 0.272936 0  0.559375 0.3 0  0.556796 0.282529 0  0.543473 0.287206 0  0.581429 0.267774 0  0.566728 0.271171 0  0.570869 0.255585 0  0.577404 0.283865 0  0.603125 0.3 0  0.597531 0.28035 0  0.570312 0.338778 0  0.592188 0.292492 0  0.603513 0.256094 0  0.614063 0.286265 0  0.610329 0.27064 0  0.632708 0.251285 0  0.657223 0.261594 0  0.618789 0.257807 0  0.614188 0.22987 0  0.630935 0.265614 
[...]
<PointData  Vectors="v"> 
	<DataArray  type="Float64"  Name="v"  NumberOfComponents="3" format="ascii">
0.0 0.0 0.0 0.0 0.0 0.0 0.0 0.0 0.0 0.0 0.0 0.0 0.7975303762256687 -0.18912283567651636 0.0 0.8411799405068652 0.19834700344114692 0.0 1.0261391874365353 -0.029356553134698277 0.0 0.9658262038045704 0.029199884778574894 0.0 0.0 0.0 0.0 0.0 0.0 0.0 0.0 0.0 0.0 0.0 0.0 0.0 0.0 0.0 0.0 0.0 0.0 0.0 0.0 0.0 0.0 0.0 0.0 0.0 0.0 0.0 0.0 0.0 0.0 0.0 0.0 0.0 0.0 0.0 0.0 0.0 0.0 0.0 0.0 0.0 0.0 0.0 0.0 0.0 0.0 0.0 0.0 0.0 0.0 0.0 0.0 0.0 0.0 0.0 0.0 0.0 0.0 0.0 0.0 0.0 0.0 0.0 0.0 0.0 0.0 0.0 0.0 0.0 0.0 0.0 0.0 0.0 0.0 0.0 0.0 0.0 0.0 0.0 0.0 0.0 0.0 0.0 0.0 0.0 0.0 0.0 0.0 0.0 0.0 0.0 0.0 0.0 0.0 0.0 0.0 0.0 0.0 0.0 0.0 0.7648462625865109 -0.0029314542627521633 0.0 1.210817170693021 0.12411017667623363 0.0 1.2331684364519062 -0.11810194808914008 0.0 0.0 0.0 0.0 1.3022817292425604 -0.0756894567917612 0.0 1.3148476829235383 0.09157882896704678 0.0 0.0 0.0 0.0 0.0 0.0 0.0 1.0 0.0 0.0 0.0 0.0 0.0 0.0 0.0 0.0 0.0 0.0 0.0 0.8471412062200407 -0.229549262708955 0.0 1.1547756618933065 -0.3019571545327735 0.0 0.8679939739904113 0.22408587432586682 0.0 1.1687667052223092 0.30873751267878186 0.0 0.4320996645511305 -0.0060881837588059205 0.0 0.16564842389296022 0.02715578760726347 0.0 0.1714097601016656 -0.023478389427114877 0.0 -0.046684720671078844 -0.06582636041301643 0.0 -0.04947637377536024 0.062196077642920566 0.0 0.3382687032784028 -0.2838271858016443 0.0 0.8738735982820114 -0.6732222588614901 0.0 0.6514517810905477 -0.6951372102499127 0.0 1.2438731985323563 -0.6031027065214067 0.0 0.3032185266785823 0.0028849999904373013 0.0 0.3338069490838586 0.2681419634443284 0.0 0.6523946923065073 0.6716571435000163 0.0 1.220682479858782 0.6030446979834536 0.0 0.2906370981423802 0.0007793659493637773 0.0 1.2828753448129382 0.19339901960426026 0.0 -0.02025414561667088 0.05387867488981952 0.0 1.2729723408233926 -0.1756112170194031 0.0 -0.017242702990281085 -0.05372246693107731 0.0 -0.03602168874943318 -0.02808609388129666 0.0 1.224978987906267 -0.39875027645719335 0.0 1.1290088029694663 -0.7311231687384496 0.0 0.8707451505749303 0.7770889327249157 0.0 1.231039733360075 0.3987334727357921 0.0 0.9094159343223698 0.16460846839631196 0.0 -0.03764565904120817 0.06800543558995495 0.0 0.9177935313107402 -0.16060033967514958 0.0 -0.038412715541131286 -0.06959029543704998 0.0 -0.030614356153599802 0.02015708188695214 0.0 1.0604238337614846 0.7277299259708889 0.0 0.4477363569237318 0.5310958125675178 0.0 0.5369677560700586 0.03195007679338334 0.0 0.07474483927924523 0.04806068818323989 0.0 0.5454921469532242 -0.030807659354550664 0.0 0.08227359142813963 -0.05155031104568591 0.0 -0.11085096477296282 0.0035771691141256025 0.0 0.9690231288254854 0.2977445596040199 0.0 1.2525421399533845 0.24582982669734948 0.0 1.2955616930293237 0.20372267889610796 0.0 1.2259945878085783 -0.24395791287210225 0.0 1.292798561476144 -0.19691628443273868 0.0 1.3043516197580538 0.2540857113139112 0.0 1.3077189256859676 -0.24653455078235456 0.0 0.45005398755845993 -0.5513331683416356 0.0 0.805951785238673 -0.1397366685241487 0.0 0.679405808031413 -0.4202276837612339 0.0 0.8910969039187591 0.5909964411173724 0.0 0.8031480585774488 0.13974974561026302 0.0 0.6842463696851525 0.41741484133544154 0.0 1.2783082708753641 -0.04414398009161378 0.0 0.19187400348351638 0.03299781169448452 0.0 0.20801725057882173 -0.02803553013443931 0.0 -0.0843009699938328 -0.03853197788023247 0.0 1.3021528092340584 0.42786778018829225 0.0 0.8768435279942838 0.06750174520905135 0.0 1.2976999920070016 -0.4336997532716569 0.0 0.8949309687396596 -0.06063741929098611 0.0 1.3325836218883083 0.3597588081824836 0.0 1.2703550901578369 0.345570395811574 0.0 1.3284218851966632 -0.3576873821065216 0.0 1.261430024105434 -0.3269242066407138 0.0 0.5884868291022775 -0.16240978931795771 0.0 0.8033852151708376 -0.3301956358592469 0.0 1.0312294647358349 0.5958656710166296 0.0 0.5962969671597136 0.14844596171204646 0.0 0.8189427997425057 0.32687023168777757 0.0 0.8736241629903048 0.03565391969362809 0.0 0.9029707335197815 -0.02694037251840881 0.0 -0.037445310124806154 -0.06137041857762455 0.0 1.3094563871076341 0.1347994088010553 0.0 0.9342554486608396 -0.3054585180817587 0.0 1.2921492640679795 -0.11940998890617269 0.0 0.4091429210633737 0.026803474621236938 0.0 0.43815249946330526 -0.019041791883495533 0.0 -0.12433299067727639 -0.031498591002051296 0.0 1.0623267999028647 0.3227874146461213 0.0 0.9524628720556467 0.3793715527262342 0.0 1.0286101533787906 0.07053584403491776 0.0 0.9230059174946667 -0.048627387394722346 0.0 1.2748403825931396 0.05542891766350219 0.0 1.0335052760960393 -0.3180569475983666 0.0 1.0984515633228642 -0.5582458723546126 0.0 0.9403923104756804 -0.3799285638723965 0.0 1.0122921433314707 -0.4249394223319046 0.0 0.9475643844828067 -0.5382369518329001 0.0 0.8746111491395092 -0.4018753955890804 0.0 1.3099363968510538 0.15689008171726115 0.0 1.3018765091509974 -0.14705749909020766 0.0 0.8562860498954983 -0.2305435185263588 0.0 0.8852047635695872 -0.3029870230588557 0.0 0.8588751726221499 -0.2948681172588439 0.0 0.853673029586763 -0.24568879429989623 0.0 0.8576267850915034 -0.24497702907432564 0.0 0.9022587813345396 -0.30902611946672515 0.0 1.3158921966731012 0.2278253218464972 0.0 1.1709540417967423 -0.03840486584552422 0.0 1.3271853569322687 0.28838372742146867 0.0 1.3070709842295942 -0.21001220007155394 0.0 0.0 0.0 0.0 0.0 0.0 0.0 1.3104612428473943 -0.27694917071202757 0.0 0.7198813085974095 -0.2680495259102049 0.0 0.8246105101693961 -0.20973915814545716 0.0 0.8737391936271354 -0.11008623762585473 0.0 0.8656034878230588 -0.16218068789694623 0.0 0.9375 0.0 0.0 0.7500000000000001 0.0 0.0 0.7275505369515883 0.26249135404645063 0.0 0.8281533543059482 0.19623245037064818 0.0 0.7499999999999999 0.0 0.0 0.8725649800388603 0.12449926446347155 0.0 0.9301491993880275 0.04084741172934312 0.0 0.8509301925157884 0.042983629598687755 0.0 -0.09357483931560186 -0.044112599799652714 0.0 0.011320814546562533 -0.04274583688629251 0.0 1.1381284328224157 0.5372248239267069 0.0 1.032902418344342 0.45846971309385154 0.0 0.8838669668075702 0.237760976497524 0.0 1.2503153854051416 0.0856860096085662 0.0 1.3015704306720515 0.015921199012338565 0.0 0.2877423349432313 0.0187779600784138 0.0 1.3154458153435407 0.05070370350055552 0.0 0.8196712789015801 0.014601754992359316 0.0 1.230290401945929 0.054867192808370636 0.0 0.5841709645792699 -0.012302792161449411 0.0 0.5496526235937448 0.0023140223312092044 0.0 -0.0027192893899415315 0.02676526577112775 0.0 1.0735740496846091 0.0006864542770615408 0.0 0.2316831592616738 0.012406629977004481 0.0 0.14275048745222094 0.0037422645598778298 0.0 0.2629139902010035 0.003226665829336651 0.0 0.7875220863667802 -0.03791818179927942 0.0 0.5797401634071356 -0.021187597939801447 0.0 1.295789059750216 -0.01822126085032265 0.0 0.605748374835929 0.02923496783117586 0.0 1.262123364142848 -0.08534659525263433 0.0 0.0892023420999198 -0.04487323356886767 0.0 1.1516270741234453 0.11554664158844628 0.0 0.8853159947751429 0.17423177467869816 0.0 0.6961693477616792 -0.1561974105488172 0.0 1.0460354290715923 -0.05748901100697578 0.0 1.0180864326688355 -0.1841641093672816 0.0 0.8665403361079879 -0.17936389109532105 0.0 0.8778918807383367 -0.026486603764275186 0.0 0.4328429078384731 -0.01625777145115712 0.0 0.2411694077521668 -0.022195587667966945 0.0 1.2932138517052676 0.002011293973436133 0.0 0.19164114424127748 -0.011116739730775475 0.0 1.3039752164530962 -0.03559125242836215 0.0 0.1431267560852709 -0.024184778156582445 0.0 0.6107203517901314 0.012278315574242405 0.0 -0.07207642419728073 -0.02875247268417307 0.0 0.6426299799334367 0.00021122106321554797 0.0 0.884352059331567 0.28977155338684485 0.0 0.8878490780492208 0.40360253952483954 0.0 0.8864740496650197 0.2566259929522077 0.0 0.9140690271922589 0.10656004413792489 0.0 0.8671399028045119 0.21434187717997738 0.0 0.9091709353669132 0.2929984812539821 0.0 0.8583175080630505 0.22272330299654952 0.0 0.8015251150424685 0.17318401688986562 0.0 0.8682515826503668 0.15557050111766724 0.0 0.0 0.0 0.0 0.8422496873978745 0.16930165026118538 0.0 0.8737666707409459 0.16681573884299083 0.0 1.120014798092465 0.014101224999327538 0.0 1.2679401680790272 0.023390218901420515 0.0 1.010945028496978 -0.01982349015190832 0.0 0.7205377163312833 -0.061997210784402935 0.0 1.2144042095861853 0.08975861427276495 0.0 0.716245746060958 -0.1647578907639643 0.0 1.1244757082902845 -0.1107729184502979 0.0 1.1025399169186896 0.013008003308296302 0.0 1.287824768730778 0.031548307841133494 0.0 0.690491491368548 0.031264673792905616 0.0 1.2516777593622415 0.021768967493213512 0.0 1.0939738437295106 0.04583449564733693 0.0 -0.06418587560667884 -0.0070157084537494484 0.0 -0.19388764579887124 0.0031116609206027286 0.0 0.9502921038503824 0.3261468870333221 0.0 1.0049804379265888 -0.05346254931947935 0.0 0.5104763369691386 -0.0357924618744492 0.0 0.0 0.0 0.0 1.222961222068822 -0.0025675484153527724 0.0 1.2525295122450306 -0.011935980047487724 0.0 1.2344905634866474 0.06061233105894754 0.0 1.108577653252851 -0.07196901188845675 0.0 0.4582287307717476 0.006604062628241096 0.0 1.2504461683297547 0.049542420052871156 0.0 1.247349181659961 0.09761004599332443 0.0 -0.01019251809455711 -0.01606634656868349 0.0 -0.16819060923793816 -0.017218012878187885 0.0 -0.15675739385534362 -0.018053787875357358 0.0 -0.15560121059543758 0.0108009027304305 0.0 1.1523696661331164 0.16537379340452416 0.0 0.773087752022015 0.1830744150266185 0.0 0.777667078964035 0.14648763680258745 0.0 0.785894424790942 0.10224671071680479 0.0 0.617917136370195 0.10395419783651359 0.0 0.401328139484535 -0.01965104763590246 0.0 0.06738184761750644 -0.001993584020702176 0.0 0.4572099283694147 -0.05190465498941941 0.0 0.9915345199702925 0.04311591488626181 0.0 0.0 0.0 0.0 0.6212300271177136 0.04253812277378918 0.0 1.0511111649370053 0.06891067607142935 0.0 -0.22441966314387418 0.0022988220722106483 0.0 1.080048303141929 0.22126804155271482 0.0 0.9013384319787993 0.10842729982614584 0.0 1.2602242991212458 -0.08754366841233592 0.0 0.19443837964636518 0.00711745456432299 0.0 0.4439845622907977 0.05218998573079669 0.0 0.15011137631353458 0.015128857222757997 0.0 1.2647669995916857 0.07935694791717827 0.0 -0.2149509554371303 -0.0032219470011347865 0.0 -0.17247991972113907 -0.01172738127268458 0.0 -0.2034935938930451 -0.004460077637485114 0.0 -0.13075980181892852 0.013210786595054171 0.0 -0.1985565143389747 0.003109013440954297 0.0 -0.23384086169424115 0.0028272073170960274 0.0 -0.14515174153040888 0.00952239323562902 0.0 -0.12049340267984654 0.003807633798225731 0.0 -0.23556961948186123 0.0027401565471139814 0.0 0.060605289022283834 -0.011858405553535891 0.0 -0.12127589656634512 0.008745424731779684 0.0 -0.23141860180214902 0.005466123504847978 0.0 -0.23622046861435805 0.0042946549454175136 0.0 -0.07562309217884032 -0.0077234363667802826 0.0 0.0 0.0 0.0 0.937479622207251 0.2287249002257245 0.0 0.9517269937194262 0.0385002292950761 0.0 0.2557206947942934 -0.022240778825826403 0.0 0.34059138084567564 0.010667915167918289 0.0 0.6625776090542399 0.05872695519093161 0.0 1.0361675091487672 0.08929679112788196 0.0 1.2275504492158649 0.07510623488404829 0.0 1.2494221178170488 -0.024426286461022996 0.0 0.08531081978489882 0.02154541836122397 0.0 -0.10148977821822969 -0.0025952321977790013 0.0 0.022770258366035044 -0.026420722024220793 0.0 0.15561997606642683 -0.025884508683656944 0.0 0.15805068065784578 -0.03447730273328261 0.0 0.4050375214335839 -0.054834202003705035 0.0 0.7271152348049122 -0.09947115555371216 0.0 0.9945801142495434 -0.09764774948862968 0.0 0.4804283704664423 -0.06961571904811555 0.0 0.6895283476041836 -0.07678649436377898 0.0 0.7985547677093027 -0.09405499223769108 0.0 0.9097185627013412 -0.08283019536319074 0.0 0.35490493847481674 -0.06299682192151874 0.0 1.246966870413025 -0.10378631144568473 0.0 1.1462056779971792 -0.09404396323788355 0.0 1.2714053002680263 -0.06645100746936977 0.0 1.1417519492880341 -0.07962694619495783 0.0 -0.06842492617136962 -0.016693683114685064 0.0 1.1221529715656955 -0.11356778831066394 0.0 1.1501793730990881 -0.06720515770859442 0.0 1.0993876362498245 -0.10356359809652803 0.0 -0.1717484867646168 0.004923987876229183 0.0 0.6059997704946785 -0.09270707653588348 0.0 1.1684574871986708 -0.13877004827777045 0.0 0.1923460103841532 -0.04922889401243936 0.0 -0.2138345148718111 0.009725775380642942 0.0 1.2185752442049649 -0.1285757358684845 0.0 0.11789032445949338 -0.046700403437681906 0.0 -0.1876038521408015 0.0034713637462802575 0.0 -0.0479404164909455 0.04188639991438625 0.0 0.0786967875994853 -0.0392324637862375 0.0 -0.09165365073155116 -0.013384881701116241 0.0 0.5724359208185509 -0.09867738730766745 0.0 -0.04699081470414208 -0.02116020398283104 0.0 0.19494084471185735 0.059552409289817185 0.0 -0.12935142901856014 0.02930280663935407 0.0 -0.07856303009924154 -0.010601957500978467 0.0 -0.14036254125274744 0.011374202814547112 0.0 0.059619217820795295 0.05597431996542563 0.0 1.073646668378369 0.09816202695171208 0.0 0.44224703134026616 0.09233773504113729 0.0 0.4538485141586068 -0.09227746626790224 0.0 0.30806767318246403 -0.033015358477444905 0.0 0.8402980747080695 -0.057460906957865814 0.0 0.3621760481601457 0.029723401999602113 0.0 1.2118218198055704 0.0973944111165975 0.0 1.0147988879441918 0.11417187779677758 0.0 1.0486300882283874 -0.1368174968934509 0.0 -0.12098517519948142 0.002454232682574619 0.0 -0.12048579854005895 -0.006742224006148097 0.0 -0.21730915496297465 0.004933951388583093 0.0 -0.09557629187888163 0.028442544285576087 0.0 -0.14469719028595837 -0.005089042676482711 0.0 0.4534723388350557 -0.08141449174994853 0.0 1.2029444334875472 -0.1339790275741309 0.0 0.7892661406121155 -0.11555586125661506 0.0 1.0227397589939424 -0.14128429765331854 0.0 -0.028775061840926937 0.0405641911802369 0.0 0.13083579999852754 -0.050881337029095725 0.0 0.050917380732115006 -0.035415628223246405 0.0 0.34724054773112834 -0.08152244433175233 0.0 0.024818053876461993 -0.03270425333989032 0.0 1.1385234703836384 0.1270029986581313 0.0 -0.05528882584718162 -0.0018524857854163087 0.0 0.03629049660777939 0.015325182502666358 0.0 -0.020581396819118303 -0.0033081782110157784 0.0 0.1608768423461215 -0.05092682770416957 0.0 0.43341430777646217 0.06819901486381245 0.0 0.8521421153203106 -0.12651009626974374 0.0 0.677787480327168 -0.11467964574811909 0.0 0.935934190420588 -0.12139912255321911 0.0 0.3931071352930171 -0.08135175776171467 0.0 0.9654746945091417 -0.14312199616033505 0.0 1.1842817442978864 -0.13790775805931746 0.0 1.1407730635378799 -0.1334768252838638 0.0 1.1274972804351584 -0.12380603297672993 0.0 0.7691071954074338 -0.12659631525977688 0.0 0.6858864215638324 -0.11986806833397219 0.0 0.5754782619168481 -0.1075831683750579 0.0 0.5429317501668969 -0.10509342030851862 0.0 0.2717763082903386 -0.07150861809100797 0.0 0.9392165352613906 -0.14042911939435168 0.0 0.32485435911580246 0.048674353740637125 0.0 0.7446297464085243 0.08580763502636211 0.0 0.06468008994992082 0.03176490118982673 0.0 0.22352300389828741 0.0579739171015841 0.0 -0.14379531978227808 0.017015475317333648 0.0 1.2286933971113094 0.014511363420920577 0.0 1.0783111059389088 0.06661443270918795 0.0 1.2482912125511734 -0.04826552128927605 0.0 1.1876711387475314 -0.09627309421352047 0.0 0.3128197539755166 -0.07602801225267311 0.0 0.5450114909647348 -0.09953180922287268 0.0 0.7013245448451485 0.10295259334438638 0.0 0.11384520768652404 0.054543991040812666 0.0 1.1951581220586462 0.037852971344938986 0.0 1.2369864817444425 -0.06781981374057149 0.0 0.6702415053783174 0.1112069720835274 0.0 1.1917102595200955 -0.11028039295810922 0.0 0.7297450291921141 0.09680403287327281 0.0 1.23036703643096 0.11406411178003768 0.0 0.4415998700568929 0.08604382286859942 0.0 0.8507888516286712 0.12424567077017586 0.0 1.2168169678692566 0.05925418282425233 0.0 1.100486000679702 -0.051546669275941336 0.0 1.174887286777536 -0.11894660769084843 0.0 0.9597812660542349 0.11776491272902331 0.0 1.1200931975743464 0.1322083760819429 0.0 1.1634144136687554 0.12270269162607397 0.0 1.1748976105308555 0.13257787890108336 0.0 1.14244131404276 0.1423856393214815 0.0 1.068967393807494 0.13683932771727716 0.0 0.8172961545786296 0.12834379349282943 0.0 1.1029591628329063 -0.11610482288674126 0.0 0.0 0.0 0.0 1.1639526560518743 0.08999416740556401 0.0 1.0163672390591265 0.1415078087831235 0.0 0.44501685131588253 0.09727730261805605 0.0 1.1716154501460103 0.10554880415086174 0.0 1.0082754795797353 0.1410787417350746 0.0 1.1934459534669206 0.12934275856979605 0.0 0.7484367364552879 0.12546799471730008 0.0 1.1554279690344718 0.1305219693456308 0.0 0.7005178123469776 0.11957443517823757 0.0 0.3660539790525247 0.09016595912120974 0.0 1.1394826841864243 0.14122974827328802 0.0 0.8084088886562663 0.13047803693032678 0.0 1.0977073187122832 0.1397884871388466 0.0 0.9589146810057441 0.13857655727746715 0.0 0.902206310178712 0.1308250822716502 0.0 1.1860724146510813 0.13515982503589505 0.0 1.143353095798415 0.14040831332882794 0.0 1.1511340873038434 0.11430718035096124 0.0 0.23005525570559984 0.07554676975750915 0.0 0.9304747331145014 0.08745794467356031 0.0 1.1472360654369713 0.13467920840842687 0.0 1.1263738209406005 0.13506865581055688 0.0 1.1038061306051343 0.11400511275817929 0.0 1.119652344040755 0.12176892570871892 0.0 1.1250871272185812 0.11531290945251728 0.0 0.9912315719317469 0.08449435901066364 0.0 1.01463706311966 0.12629510787264686 0.0 1.023835601554865 0.10064112670896423 0.0 1.1063015880120208 0.11367926713545258 0.0 0.8163930733910749 0.07071871102306714 0.0 1.1121340522309882 0.12505340832429782 0.0 1.0773675558185485 0.11949806265267277 0.0 1.0815298320182514 0.1327480142314994 0.0 1.0305889632443326 0.0998486910986212 0.0 0.0 0.0 0.0 0.6487101539211667 -0.007409236967050504 0.0 1.0909433789083705 0.40951159063051695 0.0 1.1829835015884302 0.3861992520091582 0.0 1.0982482570379994 -0.40288015171531455 0.0 0.8597146030285889 -0.20715990221605352 0.0 0.9713484711680072 -0.22500561908551092 0.0 0.8937387794595637 -0.08362657393420904 0.0 1.2594393290363528 -0.012935081690864741 0.0 1.165383964277187 -0.026445031135986452 0.0 1.2494233823281466 -0.05626069765279486 0.0 1.1784216535881038 -0.03753245710838842 0.0 1.2199086754834645 -0.011109450221672717 0.0 -0.14239867490707425 -0.011176017500086986 0.0 -0.1347086621884154 0.02146226426638926 0.0 -0.0753086365855431 0.01987349547954933 0.0 -0.07880632152456765 0.03657504575386074 0.0 0.06436765426868593 0.03439772366627623 0.0 -0.11628741846684544 0.027714584385650002 0.0 -0.03973530676679245 0.05548250074046222 0.0 0.0879863448478172 0.043239743067368025 0.0 -0.03364562666748409 0.06812938914413921 0.0 -0.08200218588619398 0.04445180399709976 0.0 0.9881878975164755 0.11901293851796207 0.0 -0.12681619914345144 0.029388644543905263 0.0 1.1861466251116892 -0.13793076941581814 0.0 1.1642536140025144 -0.14515134088238787 0.0 1.0594605919178512 -0.14579235524553644 0.0 1.1366871030158014 -0.1475008351219703 0.0 1.1330365048787618 -0.12576229424586996 0.0 1.0292066050529818 -0.1461163120021345 0.0 1.1502368364119426 -0.1331618560377661 0.0 1.1129947364181425 -0.1445150006605673 0.0 1.1408484725948322 -0.14513580421724942 0.0 0.9881862976230094 -0.13542165385871985 0.0 1.019683739696654 -0.141437314538431 0.0 0.8093980765913726 -0.1276780690767737 0.0 1.1136342067811382 -0.13840178121769386 0.0 1.1150347380753456 -0.11613761152131662 0.0 1.0906025807060877 -0.12971588769546477 0.0 0.9481642321127405 -0.09166256116221021 0.0 1.127335547980182 -0.12641744036502126 0.0 0.8530171714655482 -0.1192083110528926 0.0 1.1062544109976162 -0.11793677454294375 0.0 1.0244347992723002 -0.1236304151729483 0.0 0.8109035814778696 -0.10190118362779883 0.0 0.9496121537593126 -0.09340891720867876 0.0 0.8886460360827777 -0.11360530864901822 0.0 0.43364442525937136 -0.07806463859929218 0.0 0.9824003713145262 -0.11057568104851802 0.0 0.6705759256001901 -0.09834155344051243 