<?xml version="1.0"?>
<VTKFile type="UnstructuredGrid"  version="0.1"  >
<UnstructuredGrid>
<Piece  NumberOfPoints="1289" NumberOfCells="2413">
<Points>
<DataArray  type="Float64"  NumberOfComponents="3"  format="ascii">0 0 0  0 0.41 0  2.2 0.41 0  2.2 0 0  0.1 0.1 0  0.1 0.3 0  0.8 0.3 0  0.8 0.1 0  0.25 0.2 0  0.248976 0.210065 0  0.245948 0.219718 0  0.241038 0.228563 0  0.234448 0.23624 0  0.226448 0.242432 0  0.217365 0.246888 0  0.207571 0.249423 0  0.197468 0.249936 0  0.187467 0.248404 0  0.17798 0.24489 0  0.169395 0.239539 0  0.162062 0.232569 0  0.156283 0.224265 0  0.152293 0.214968 0  0.150257 0.205058 0  0.150257 0.194942 0  0.152293 0.185032 0  0.156283 0.175735 0  0.162062 0.167431 0  0.169395 0.160461 0  0.17798 0.15511 0  0.187467 0.151596 0  0.197468 0.150064 0  0.207571 0.150577 0  0.217365 0.153112 0  0.226448 0.157568 0  0.234448 0.16376 0  0.241038 0.171437 0  0.245948 0.180282 0  0.248976 0.189935 0  1.1 0 0  1.1 0.41 0  0.1 0.2 0  0.45 0.1 0  0.45 0.3 0  0.55 0 0  0.275 0.1 0  0.275 0.3 0  0.275 0 0  0.55 0.41 0  0 0.205 0  0.825 0 0  0.825 0.41 0  0.275 0.41 0  0.1 0.15 0  0.1875 0.1 0  0.1 0.25 0  0.1875 0.3 0  0.132322 0.2 0  0.241426 0.253518 0  0.241426 0.146482 0  0.264574 0.17974 0  0.264574 0.22026 0  0.138434 0.187348 0  0.153372 0.150948 0  0.148413 0.164094 0  0.176495 0.136535 0  0.22768 0.143571 0  0.138434 0.212652 0  0.148413 0.235906 0  0.176495 0.263465 0  0.22768 0.256429 0  0.23125 0.3 0  0.24769 0.24094 0  0.23125 0.1 0  0.24769 0.15906 0  0.26253 0.193641 0  0.190482 0.137872 0  0.166753 0.146661 0  0.157737 0.244461 0  0.190482 0.262128 0  0.203107 0.261264 0  0.253635 0.22977 0  0.203107 0.138736 0  0.253635 0.17023 0  0.261028 0.206206 0  0.167707 0.251809 0  0.143629 0.224191 0  0.215302 0.2591 0  0.270465 0.245894 0  0.215302 0.1409 0  0.270465 0.154106 0  0.284052 0.202587 0  0.14375 0.3 0  0.209375 0.3 0  0.225966 0.278501 0  0.209375 0.1 0  0.225966 0.121499 0  0.211613 0.273759 0  0.211613 0.126241 0  0.143629 0.175809 0  0.1 0.175 0  0.133484 0.164832 0  0.144491 0.249539 0  0.1 0.225 0  0.133484 0.235168 0  0.3625 0.3 0  0.25691 0.253381 0  0.25691 0.146619 0  0.277205 0.188698 0  0.184724 0.275712 0  0.237372 0.268285 0  0.184724 0.124288 0  0.237372 0.131715 0  0.197578 0.273149 0  0.193656 0.286994 0  0.197578 0.126851 0  0.193656 0.113006 0  0.122953 0.187671 0  0.118362 0.153758 0  0.155372 0.258107 0  0.122953 0.212329 0  0.118362 0.246242 0  0.276394 0.27264 0  0.276394 0.12736 0  0.280965 0.170013 0  0.253125 0.3 0  0.14375 0.1 0  0.253125 0.1 0  0.269489 0.26014 0  0.269489 0.13986 0  0.303639 0.184297 0  0.165625 0.3 0  0.134742 0.273113 0  0.257831 0.274737 0  0.255279 0.128499 0  0.3625 0.1 0  0.165625 0.1 0  0.162031 0.132368 0  0.134955 0.126405 0  0.149334 0.125568 0  0.142936 0.139597 0  0.12695 0.140259 0  0.242514 0.285501 0  0.242514 0.114499 0  0.1 0.125 0  0.117483 0.12555 0  0.11154 0.139776 0  0.121875 0.1 0  0.109143 0.1125 0  0.126805 0.114 0  0.220313 0.29129 0  0.351562 0.287369 0  0.207222 0.2866 0  0.220312 0.10871 0  0.1375 0 0  0.20625 0 0  0.207222 0.1134 0  0.11722 0.17118 0  0.1 0.1625 0  0.0778409 0.16875 0  0.0862762 0.15625 0  0 0.15375 0  0 0.1025 0  0.11722 0.22882 0  0.1 0.2375 0  0 0.3075 0  0.0862762 0.23125 0  0.0598995 0.222547 0  0.0860223 0.2125 0  0.289584 0.181469 0  0.300267 0.16446 0  0.163832 0.269071 0  0.149597 0.273325 0  0.1 0.275 0  0.268498 0.285953 0  0.31875 0.3 0  0.294154 0.254672 0  0.296875 0.3 0  0.293558 0.271845 0  0.285095 0.286799 0  0.324298 0.264316 0  0.307866 0.263745 0  0.317093 0.234901 0  0.315485 0.281219 0  0.316547 0.250625 0  0.344693 0.243731 0  0.331592 0.251147 0  0.35129 0.270663 0  0.338689 0.263683 0  0.340625 0.3 0  0.249849 0.264383 0  0.265097 0.11422 0  0.284688 0.156136 0  0.242188 0.324017 0  0.0856613 0.2625 0  0.132812 0.0612217 0  0.264062 0.0612217 0  0.198437 0.07598340000000001 0  0.0860223 0.1375 0  0.0794526 0.191089 0  0.285228 0.140397 0  0.298655 0.148737 0  0.31875 0.1 0  0.327335 0.15374 0  0.296875 0.1 0  0.312289 0.155283 0  0.313348 0.135607 0  0.321802 0.173916 0  0.298433 0.134116 0  0.112124 0.2625 0  0.127526 0.259083 0  0.121875 0.3 0  0.0682687 0.241503 0  0.1 0.2875 0  0.117762 0.28125 0  0.107813 0.3 0  0.103906 0.313849 0  0.0778409 0.28125 0  0.1375 0.41 0  0.0862762 0.29375 0  0.08886860000000001 0.24375 0  0.307812 0.338778 0  0.307812 0.292227 0  0.33216 0.279164 0  0.387888 0.266414 0  0.264063 0.31948 0  0.110937 0.07598340000000001 0  0.242188 0.07598340000000001 0  0.319914 0.11839 0  0.340625 0.1 0  0.334448 0.133793 0  0.329687 0.108539 0  0.346259 0.118491 0  0.360334 0.173636 0  0.327539 0.205033 0  0.132812 0.288712 0  0.362436 0.278836 0  0.368105 0.259418 0  0.4125 0.41 0  0.329687 0.324017 0  0.329687 0.292306 0  0.285938 0.318952 0  0.417187 0.338778 0  0.324481 0.14148 0  0.351562 0.106771 0  0.40625 0.1 0  0.341028 0.168342 0  0.319221 0.190479 0  0.335292 0.184501 0  0.305563 0.20794 0  0.220313 0.31948 0  0.132812 0.332772 0  0.0865876 0.311259 0  0.0598995 0.302453 0  0.0906541 0.343255 0  0.353543 0.255837 0  0.36574 0.237633 0  0.405007 0.254279 0  0.275795 0.352123 0  0.4125 0 0  0.35493 0.137394 0  0.366563 0.120618 0  0.35917 0.205246 0  0.198438 0.318952 0  0.0626109 0.263892 0  0.40625 0.3 0  0.354809 0.155936 0  0.386512 0.146872 0  0.373101 0.159939 0  0.384375 0.1 0  0.343394 0.19929 0  0.350682 0.185683 0  0.368101 0.189748 0  0.344016 0.221511 0  0.391108 0.213329 0  0.376279 0.204783 0  0.398843 0.182768 0  0.375804 0.222746 0  0.390665 0.196958 0  0.394004 0.23518 0  0.359883 0.222828 0  0.419908 0.204359 0  0.404243 0.204783 0  0.412615 0.224526 0  0.20625 0.41 0  0.165625 0.325257 0  0.0347982 0.244954 0  0.379558 0.247154 0  0.34165 0.147603 0  0.372264 0.136992 0  0.388988 0.121989 0  0.373437 0.108554 0  0.351562 0.31948 0  0.391367 0.16527 0  0.399572 0.223324 0  0.452011 0.227371 0  0.40877 0.239392 0  0.431491 0.237337 0  0.421224 0.250459 0  0.449619 0.262098 0  0.418865 0.276779 0  0.437063 0.252274 0  0.415673 0.263227 0  0.430988 0.266772 0  0.402767 0.273419 0  0.452967 0.244883 0  0.428125 0.3 0  0.408502 0.286186 0  0.384375 0.3 0  0.392267 0.285807 0  0.465927 0.219339 0  0.43489 0.283846 0  0.376424 0.286289 0  0.625 0.3 0  0.473533 0.205186 0  0.461713 0.255517 0  0.5375 0.3 0  0.465725 0.235405 0  0.44631 0.201425 0  0.471875 0.3 0  0.494307 0.227729 0  0.459448 0.206736 0  0.462294 0.180792 0  0.478933 0.227536 0  0.486793 0.21381 0  0.486322 0.251373 0  0.50065 0.215318 0  0.54005 0.175389 0  0.474633 0.189893 0  0.512916 0.208697 0  0.49531 0.199967 0  0.475889 0.175275 0  0.625 0.1 0  0.459311 0.153933 0  0.513645 0.242704 0  0.392892 0.248539 0  0.374815 0.271913 0  0.365974 0.14871 0  0.395312 0.109184 0  0.417061 0.123981 0  0.483196 0.277003 0  0.381967 0.179632 0  0.429898 0.219374 0  0.433473 0.206165 0  0.43149 0.181038 0  0.444208 0.215487 0  0.472985 0.247309 0  0.49375 0.3 0  0.475579 0.262714 0  0.49916 0.274293 0  0.501175 0.184809 0  0.514164 0.225681 0  0.543648 0.214977 0  0.5341630000000001 0.23481 0  0.527396 0.216171 0  0.5375 0.1 0  0.534548 0.202315 0  0.561545 0.192513 0  0.5494289999999999 0.201221 0  0.570923 0.218346 0  0.412582 0.149833 0  0.489327 0.264745 0  0.502439 0.254775 0  0.462391 0.271166 0  0.496775 0.241732 0  0.5294410000000001 0.268606 0  0.482812 0.291099 0  0.46879 0.285038 0  0.452663 0.284065 0  0.51789 0.257882 0  0.53408 0.252026 0  0.560142 0.243543 0  0.545708 0.243474 0  0.547532 0.229019 0  0.55282 0.265323 0  0.398971 0.153424 0  0.400349 0.135684 0  0.410135 0.168145 0  0.428823 0.161323 0  0.415266 0.183779 0  0.329687 0.0810483 0  0.395312 0.0612217 0  0.373437 0.318952 0  0.439062 0.324017 0  0.561816 0.229354 0  0.585029 0.239287 0  0.431827 0.139854 0  0.446796 0.168929 0  0.351562 0.07598340000000001 0  0.395313 0.318944 0  0.54337 0.150762 0  0.460937 0.31948 0  0.418412 0.137529 0  0.428125 0.1 0  0.442783 0.152332 0  0.450742 0.134294 0  0.373437 0.0805201 0  0.384383 0.342558 0  0.482812 0.318952 0  0.429239 0.127457 0  0.444274 0.117405 0  0.426548 0.113815 0  0.49375 0.1 0  0.488954 0.113984 0  0.457973 0.121842 0  0.471621 0.137346 0  0.515625 0.325257 0  0.48125 0.41 0  0.417187 0.07598340000000001 0  0.496363 0.126778 0  0.479043 0.155715 0  0.439062 0.0805201 0  0.481795 0.126919 0  0.471875 0.1 0  0.489227 0.142159 0  0.515625 0.1 0  0.520062 0.147117 0  0.501244 0.161791 0  0.505431 0.112984 0  0.505344 0.14029 0  0.526563 0.119081 0  0.5181750000000001 0.131908 0  0.539868 0.136937 0  0.460937 0.108383 0  0.474242 0.114415 0  0.460937 0.0810483 0  0.487841 0.167168 0  0.526563 0.0612217 0  0.526563 0.106406 0  0.537619 0.112743 0  0.58125 0.1 0  0.559375 0.1 0  0.482812 0.08105569999999999 0  0.471883 0.0587655 0  0.570312 0.129396 0  0.548437 0.07598340000000001 0  0.504687 0.08105569999999999 0  0.49375 0.0470127 0  0.570312 0.112663 0  0.592798 0.12103 0  0.553986 0.12103 0  0.570312 0.0805201 0  0.48125 0 0  0.114787 0.2 0  0.160769 0.284765 0  0.175816 0.288361 0  0.162602 0.116048 0  0.154687 0.07598340000000001 0  0.176562 0.0805201 0  0.0598995 0.147547 0  0.307812 0.109924 0  0.291279 0.117157 0  0.278491 0.112989 0  0.285937 0.07598340000000001 0  0.307812 0.0805201 0  0.296928 0.196743 0  0.318141 0.218507 0  0.330208 0.227509 0  0.301397 0.225668 0  0.302706 0.241401 0  0.292574 0.21424 0  0.282762 0.230935 0  0.284351 0.244775 0  0.269553 0.23261 0  0.278572 0.217242 0  0.226924 0.342606 0  0.446928 0.185396 0  0.515625 0.3 0  0.504687 0.288879 0  0.515256 0.276534 0  0.529479 0.285328 0  0.58125 0.3 0  0.541969 0.272936 0  0.559375 0.3 0  0.556796 0.282529 0  0.543473 0.287206 0  0.581429 0.267774 0  0.566728 0.271171 0  0.570869 0.255585 0  0.577404 0.283865 0  0.603125 0.3 0  0.597531 0.28035 0  0.570312 0.338778 0  0.592188 0.292492 0  0.603513 0.256094 0  0.614063 0.286265 0  0.610329 0.27064 0  0.632708 0.251285 0  0.657223 0.261594 0  0.618789 0.257807 0  0.614188 0.22987 0  0.630935 0.265614 
[...]
<PointData  Vectors="v"> 
	<DataArray  type="Float64"  Name="v"  NumberOfComponents="3" format="ascii">
0.0 0.0 0.0 0.0 0.0 0.0 0.0 0.0 0.0 0.0 0.0 0.0 0.797485909378845 -0.18900177900779552 0.0 0.8412266359206748 0.19847197735718616 0.0 1.0298180399416674 -0.038040867575038766 0.0 0.963511045445726 0.021702294779764854 0.0 0.0 0.0 0.0 0.0 0.0 0.0 0.0 0.0 0.0 0.0 0.0 0.0 0.0 0.0 0.0 0.0 0.0 0.0 0.0 0.0 0.0 0.0 0.0 0.0 0.0 0.0 0.0 0.0 0.0 0.0 0.0 0.0 0.0 0.0 0.0 0.0 0.0 0.0 0.0 0.0 0.0 0.0 0.0 0.0 0.0 0.0 0.0 0.0 0.0 0.0 0.0 0.0 0.0 0.0 0.0 0.0 0.0 0.0 0.0 0.0 0.0 0.0 0.0 0.0 0.0 0.0 0.0 0.0 0.0 0.0 0.0 0.0 0.0 0.0 0.0 0.0 0.0 0.0 0.0 0.0 0.0 0.0 0.0 0.0 0.0 0.0 0.0 0.0 0.0 0.0 0.0 0.0 0.0 0.0 0.0 0.0 0.0 0.0 0.0 0.7648485350664652 -0.0027113978777924034 0.0 1.2120616610201997 0.11997488555043236 0.0 1.2324344407830319 -0.12269077391383805 0.0 0.0 0.0 0.0 1.3016659201411933 -0.07516137014564596 0.0 1.3154301284421774 0.09212969357116418 0.0 0.0 0.0 0.0 0.0 0.0 0.0 1.0 0.0 0.0 0.0 0.0 0.0 0.0 0.0 0.0 0.0 0.0 0.0 0.8470936805694148 -0.2293651598558468 0.0 1.1546060631800128 -0.3016940060339902 0.0 0.8680371117679977 0.22426941157557995 0.0 1.1689254804359517 0.3090033521003417 0.0 0.4321055237123373 -0.005766347747741417 0.0 0.1650877580681914 0.027359249933917217 0.0 0.17197980026538598 -0.023246503324146284 0.0 -0.0469586523006144 -0.0642260702097564 0.0 -0.04924877743115285 0.06380432824211452 0.0 0.3382152595501662 -0.2834686668030599 0.0 0.8737259436566533 -0.6729373548981602 0.0 0.6513150559678597 -0.6948307545360971 0.0 1.243745389839127 -0.6028792755643267 0.0 0.3037906738944051 0.003092381232958229 0.0 0.33386480027649523 0.2685015580046202 0.0 0.6525269306432484 0.6719719317895255 0.0 1.2207951440572222 0.6032664079101576 0.0 0.29006204051294415 0.0009813174002606048 0.0 1.2831399423204883 0.19379044151574024 0.0 -0.020431239628360628 0.054023513028869534 0.0 1.272698220976412 -0.17522763310483083 0.0 -0.017063302280816553 -0.05359428165729438 0.0 -0.03608079415742291 -0.026405826387248674 0.0 1.2250790790972488 -0.3986474442213372 0.0 1.12886674682014 -0.7309069233571375 0.0 0.8708962774557012 0.7773473862951623 0.0 1.2309285088589037 0.39883343939609567 0.0 0.9090235428902878 0.1646911423253821 0.0 -0.03760239144111494 0.06849031774047623 0.0 0.9181677664592711 -0.16051700687778198 0.0 -0.03845538499308389 -0.06914115446731849 0.0 -0.03059216996424943 0.021716769159817365 0.0 1.0605294106155554 0.7279140013467232 0.0 0.44786083250399367 0.5314434108732293 0.0 0.5364317514116853 0.032072686826240135 0.0 0.07464808813675486 0.04920306306585714 0.0 0.5460227927627006 -0.030681614912220677 0.0 0.08242550329880988 -0.050396536369970026 0.0 -0.11076887194258361 0.006501030832574845 0.0 0.9691219794345054 0.29794203869129215 0.0 1.2527289230214518 0.24614915319281097 0.0 1.2955024660927021 0.204075932395947 0.0 1.2257877573893816 -0.2436444776736558 0.0 1.2928375567895338 -0.19656085930053607 0.0 1.30426227701246 0.25437320212168424 0.0 1.3077830581039553 -0.24624835431943218 0.0 0.44992836419840543 -0.5509863075813825 0.0 0.8059187147004855 -0.1395200263663581 0.0 0.6793107465381453 -0.41990114356971264 0.0 0.891223169783159 0.5912652416764835 0.0 0.8031825733012613 0.13996346645229296 0.0 0.68434157148507 0.417738155223122 0.0 1.2810655407387277 -0.045428938821842714 0.0 0.1911671827339982 0.03342903371718718 0.0 0.20876344088439475 -0.027569624650228098 0.0 -0.08466537711544092 -0.03599943280035689 0.0 1.30225319924823 0.4281322923224509 0.0 0.876249381974352 0.06779293613882681 0.0 1.297578982781907 -0.43344700196855673 0.0 0.8954975773441999 -0.06032717509232496 0.0 1.3326122553585502 0.36003195549492767 0.0 1.2704851145410212 0.34586135503885784 0.0 1.3283830185372663 -0.3574151222646596 0.0 1.2612870489737604 -0.32664165573510695 0.0 0.5884483442217168 -0.16209880793983086 0.0 0.8033129564658593 -0.32995133624471357 0.0 1.0313691764432726 0.5961156963623143 0.0 0.5963340059624327 0.14875679649556292 0.0 0.8190126917233344 0.3271138778663859 0.0 0.8730210443539066 0.03650858986626472 0.0 0.9034981201919432 -0.026116528330476934 0.0 -0.038293395072797554 -0.059101961563863034 0.0 1.3098372573757577 0.13527150613325725 0.0 0.9341499116418353 -0.30525877051975764 0.0 1.2917479175006288 -0.1189414820645204 0.0 0.40829480284570285 0.0275945887902807 0.0 0.4390136801087667 -0.018240984588891167 0.0 -0.12537523257216562 -0.027668342542711645 0.0 1.0624576574995177 0.3230197527356745 0.0 0.9525546940387742 0.3795891297646807 0.0 1.0281445364011146 0.0710561345453349 0.0 0.9235836267146497 -0.04818272104883743 0.0 1.272252952077762 0.05423998889888975 0.0 1.0333620000589632 -0.3178283004558931 0.0 1.098314449056729 -0.5580077909190332 0.0 0.9402945211555255 -0.37970865682155974 0.0 1.0121735706305601 -0.4247086923266369 0.0 0.9474382469356507 -0.5379859972780496 0.0 0.8745225327462222 -0.4016413692584275 0.0 1.3100341288815438 0.15735441543650663 0.0 1.3017575565103479 -0.14659487729143333 0.0 0.8562359779440643 -0.23039161603164338 0.0 0.8851292408159104 -0.3027986672531717 0.0 0.8588097214623803 -0.2946723598512419 0.0 0.8535946968096797 -0.2455279608583857 0.0 0.857564712927795 -0.244822573526065 0.0 0.902172430902141 -0.30883651951868774 0.0 1.316066124858253 0.2281991467260669 0.0 1.1741727753499822 -0.03855903018855519 0.0 1.327313253873239 0.28871813375348354 0.0 1.3068815290229243 -0.2096414415856657 0.0 0.0 0.0 0.0 0.0 0.0 0.0 1.3103168009607196 -0.276616909979925 0.0 0.7198279336124245 -0.26778230911613904 0.0 0.8245672166237926 -0.2095419859880924 0.0 0.8737188163385787 -0.10994834686746767 0.0 0.8655756994234155 -0.16203157280200256 0.0 0.9375 0.0 0.0 0.7500000000000001 0.0 0.0 0.7276017633482852 0.26275620448051507 0.0 0.8281943591099722 0.19643062172618025 0.0 0.7499999999999999 0.0 0.0 0.8725908032524953 0.12466296052668702 0.0 0.9301588530317226 0.04093096891761557 0.0 0.8509352257368916 0.043153740146807604 0.0 -0.09442411715864875 -0.04106044484937163 0.0 0.00991222670656788 -0.0396626790708181 0.0 1.1382557073266093 0.5374682142812123 0.0 1.0330175368488352 0.45870085053306836 0.0 0.8839153179707324 0.23791427367520376 0.0 1.2504600559608248 0.08634577768924141 0.0 1.3030887830804052 0.016223373659022218 0.0 0.28781592876351164 0.020806550720543503 0.0 1.3164312626195136 0.0512558156807795 0.0 0.8193946334425246 0.01580840574551848 0.0 1.230636531150465 0.05567843909240307 0.0 0.5855799969843973 -0.01008698293550551 0.0 0.5499133071891866 0.0043245225537342676 0.0 -0.0005564048710390059 0.030720494680066764 0.0 1.0746501724381672 0.0017747189249457662 0.0 0.23337533361919174 0.015487336525140708 0.0 0.14643769375299315 0.007642034072625427 0.0 0.2655901157530561 0.006564739607677542 0.0 0.7912066447166661 -0.03680635713290551 0.0 0.5823942925621469 -0.018983189929973006 0.0 1.2980072932845823 -0.018488471000462303 0.0 0.6049600299369146 0.029585317281970516 0.0 1.262005603259676 -0.08469593352909621 0.0 0.0886717103862239 -0.04291583957626295 0.0 1.1520298693648325 0.11584566134392318 0.0 0.8853454870431033 0.17436322402743953 0.0 0.6960843460221576 -0.15608233017772546 0.0 1.0454707809405073 -0.05726217561623613 0.0 1.0178518286811247 -0.18395176229314836 0.0 0.8665068064855581 -0.17923381004759728 0.0 0.8778876083369779 -0.026337429387741782 0.0 0.43340449009120924 -0.014932425822386406 0.0 0.2406007310920966 -0.01995765133329513 0.0 1.2916846657217886 0.0022716208445629775 0.0 0.18911140170311716 -0.007600059204558678 0.0 1.3030197136610784 -0.03503770560565137 0.0 0.14139826748030748 -0.0209555725749885 0.0 0.6102064910478241 0.014138402130999846 0.0 -0.0741640143574633 -0.02440516476093849 0.0 0.6429323705228488 0.0017874058781116229 0.0 0.8844136085331601 0.28996579496370295 0.0 0.8879345281948045 0.4038379682477293 0.0 0.886547737689337 0.2567923676332023 0.0 0.9140845724400036 0.10666339177758244 0.0 0.8671870337137537 0.2144786780320946 0.0 0.9092406360496592 0.2931812880980468 0.0 0.8583726321614574 0.22286379691952174 0.0 0.8015721973113313 0.17330096270214965 0.0 0.8682781950975837 0.15566707811928562 0.0 0.0 0.0 0.0 0.8422821522785437 0.16940544609987382 0.0 0.8737968395087173 0.16697222036351067 0.0 1.1208616264125213 0.0140514688010392 0.0 1.269085374725698 0.024161411837565202 0.0 1.0129398383451367 -0.018787928909928576 0.0 0.7281002495543646 -0.0634256745897039 0.0 1.214969144728416 0.09009580394079414 0.0 0.7161881780152435 -0.16464341340761668 0.0 1.1240584007857766 -0.11049109996522374 0.0 1.1012318883915402 0.014077696037695833 0.0 1.2856976591208091 0.03125090561971442 0.0 0.6884422344897456 0.0331040983857975 0.0 1.249724263975638 0.02213503038005721 0.0 1.090989541987032 0.04620680376622168 0.0 -0.06775761673753312 -0.0029858929995284266 0.0 -0.19346756570309218 0.008188973125954674 0.0 0.950379791396992 0.32634573936942296 0.0 1.0094178080947 -0.053725148107283155 0.0 0.5162550646466713 -0.0345500905236771 0.0 0.0 0.0 0.0 1.2242136509636412 -0.002944562974856307 0.0 1.2545330725103963 -0.01158211185883901 0.0 1.2352735699234403 0.06090839408456482 0.0 1.1077383987068987 -0.07418187698571824 0.0 0.45663914730223354 0.009150337361856506 0.0 1.2477076952488577 0.04893153230675793 0.0 1.2454762519397868 0.0941277747654257 0.0 -0.01335080354934067 -0.011658029022851632 0.0 -0.1690298141188892 -0.01262531158170677 0.0 -0.15835477352641203 -0.013108432953092136 0.0 -0.15517847209739902 0.01492655661000539 0.0 1.1526477872093974 0.1656723617665192 0.0 0.7731708619861613 0.18320694578904317 0.0 0.77769516126465 0.14657757231383023 0.0 0.7859087403119974 0.10229707692976747 0.0 0.6179475743475393 0.10402118788313422 0.0 0.4057435220949562 -0.017153309097150127 0.0 0.07226874452682126 0.0011018421063133535 0.0 0.46622305588769775 -0.05485935828770805 0.0 0.9921024869610695 0.0431962011285728 0.0 0.0 0.0 0.0 0.6170646439449193 0.04403768816594633 0.0 1.0466926477314575 0.06826360905268392 0.0 -0.22378208261782354 0.007058118714061063 0.0 1.0802623821465704 0.2215144483955225 0.0 0.9013523343719534 0.10850325035243573 0.0 1.2625594702334837 -0.09129351928598152 0.0 0.1898996695204468 0.010404530978148255 0.0 0.4364476978082245 0.051735598349792404 0.0 0.14450620182777887 0.017430350300105698 0.0 1.2622219807595016 0.07694009260549162 0.0 -0.21511894067602988 0.001928553936021043 0.0 -0.1743590863550071 -0.006813896498924426 0.0 -0.205217129326541 -0.0003928242406095724 0.0 -0.1286283365633928 0.018093828545986027 0.0 -0.1962079981966922 0.004375357592111459 0.0 -0.23325132121387893 0.006178206311755066 0.0 -0.1489617529924548 0.009277092193553573 0.0 -0.11702319007113163 0.006603209796519858 0.0 -0.2363993795133486 0.004082221421366735 0.0 0.06686539288873763 -0.011837513946794106 0.0 -0.11815713625160389 0.012956691524885704 0.0 -0.23059152435394725 0.0009503834306260179 0.0 -0.2354744424240154 0.0030768925045674485 0.0 -0.07049663675024039 -0.010706407052075644 0.0 0.0 0.0 0.0 0.937625138528238 0.22891026896759156 0.0 0.9517287083572945 0.038529250830742774 0.0 0.2622875734664879 -0.02098723805020023 0.0 0.3372497004303036 0.013702625895181713 0.0 0.6565093777847116 0.05885688519110568 0.0 1.0301710077952886 0.0869322860216236 0.0 1.2240005771454363 0.0733045328245342 0.0 1.2509114102289915 -0.02535785627839167 0.0 0.07901935041736272 0.02178541997142112 0.0 -0.09696134117075289 -0.00303142521616209 0.0 0.028604671462022956 -0.03725636218500744 0.0 0.16312407194889547 -0.028646760995443186 0.0 0.1659279502164971 -0.041361434368822045 0.0 0.41443569206293307 -0.06013806924217317 0.0 0.7360349782797729 -0.10796231112768975 0.0 1.0020379981900978 -0.10293966071596637 0.0 0.49009385132192623 -0.07734768172001638 0.0 0.6990484271288884 -0.08165491483369293 0.0 0.8077898702823737 -0.10067571865227536 0.0 0.9175343045065291 -0.08645064058956424 0.0 0.3632508138782466 -0.07292265846891008 0.0 1.2480316620103262 -0.10823966091185153 0.0 1.1514049666086377 -0.09839461849133507 0.0 1.2743251550417323 -0.06891409311883617 0.0 1.1470507032564254 -0.08257412519591481 0.0 -0.0648228857113734 -0.03028221195142006 0.0 1.1268266451426525 -0.11963234106891459 0.0 1.1548010865305967 -0.06898467620228922 0.0 1.0993719552417498 -0.0958117900367062 0.0 -0.17117313266459155 -0.010370425091581086 0.0 0.6140248832705894 -0.10247257678477349 0.0 1.1612379874705254 -0.13489130579449962 0.0 0.19839425717797687 -0.0613377619730081 0.0 -0.21399203153960422 -0.0005366106690227125 0.0 1.2155650956799084 -0.13214537310203894 0.0 0.11933258488571592 -0.06100242957368536 0.0 -0.18610945868696557 -0.009653682409039627 0.0 -0.05218149117952532 0.029149757894373313 0.0 0.08219051339916805 -0.05337136437924369 0.0 -0.09054618536776551 -0.029377095556818503 0.0 0.5768813494036077 -0.10886061621811273 0.0 -0.04727773776475754 -0.03716349880161561 0.0 0.20463775115621788 0.052055419100723595 0.0 -0.13137837730650784 0.01415955304848835 0.0 -0.07963536996141118 -0.026833299722204194 0.0 -0.1402801784568018 -0.005768458550669441 0.0 0.05587244154313829 0.0420476270787015 0.0 1.0729778643383727 0.10515909641646948 0.0 0.4341926627917147 0.0823343035999236 0.0 0.4519754802568218 -0.10154180157881902 0.0 0.31577983277217353 -0.03374975501154838 0.0 0.8462582967217835 -0.058119259728207646 0.0 0.35657239234821453 0.03162605667895132 0.0 1.2079573358360802 0.09399011199132006 0.0 1.0078755947789693 0.10909062100227598 0.0 1.0493037027140844 -0.14256303878066096 0.0 -0.1248019869951002 0.004602667882673792 0.0 -0.11609907175211634 -0.013436969759141564 0.0 -0.21597468011761597 -0.002487889127658572 0.0 -0.10054156165692373 0.021418924737456754 0.0 -0.14114199170743996 -0.014819151196782511 0.0 0.45996437382268873 -0.0925830883717139 0.0 1.1978067300363988 -0.135580854352668 0.0 0.7947362318588332 -0.12429711310437232 0.0 1.0213522816516358 -0.14564529936393014 0.0 -0.02811267436926883 0.025209417905064684 0.0 0.1280266770703406 -0.06392747017436519 0.0 0.04373890757144116 -0.04510068321141733 0.0 0.33948047511220464 -0.08880242875035191 0.0 0.020351057176767974 -0.04584933169694646 0.0 1.1452833827812279 0.13102185681233455 0.0 -0.05582796832122823 -0.014904380742538125 0.0 0.0433797157095478 0.010051602571635936 0.0 -0.020430428358115423 -0.01280426681148015 0.0 0.1471922840799367 -0.05234515477510415 0.0 0.42422670510235294 0.06423178094986104 0.0 0.8546137487060766 -0.1338845034280365 0.0 0.6786625539840402 -0.12256783184048835 0.0 0.9415368843068357 -0.12919729867471358 0.0 0.39517197854526737 -0.09276137244567843 0.0 0.9591462251264699 -0.14312283185582403 0.0 1.1814556612590705 -0.14163563289463071 0.0 1.141400348032231 -0.13914200169451163 0.0 1.1304300078029597 -0.13003733342735851 0.0 0.7660121407758999 -0.13109103143678552 0.0 0.6789108151111088 -0.12252203242602641 0.0 0.5609802234621476 -0.10580713326760594 0.0 0.5323364398029838 -0.10705616788796296 0.0 0.26053922914993544 -0.0772317162189131 0.0 0.9288561395606647 -0.13631154485797106 0.0 0.3167623777415233 0.04699428971119594 0.0 0.7361998837867938 0.08281387867346608 0.0 0.05790812931385349 0.028786480468709078 0.0 0.21511598766342463 0.051396696286965964 0.0 -0.1478710988085923 0.013735828925927673 0.0 1.2273321709622536 0.0141978173305883 0.0 1.0783665615309772 0.0648435317394762 0.0 1.2496874981053048 -0.050121162268651986 0.0 1.185650705183462 -0.09934838225918118 0.0 0.297747406415947 -0.07765565921916943 0.0 0.5244590969902897 -0.09273795078592047 0.0 0.6918230405957634 0.09629033997800242 0.0 0.10694554823052033 0.04488430508888991 0.0 1.1938960248352568 0.03695884570952375 0.0 1.237768183834539 -0.07046999961352607 0.0 0.6802850890817818 0.1107460899949235 0.0 1.1884371941672882 -0.11289636082182551 0.0 0.7205560816551853 0.09155086893208605 0.0 1.2296449996476375 0.10985978423163836 0.0 0.43240751666363686 0.0776030242572194 0.0 0.8432611836692748 0.11643900577355108 0.0 1.2155927839028255 0.0575504214722218 0.0 1.1007393006758988 -0.05309265355214432 0.0 1.1702191030214912 -0.12031794195261082 0.0 0.9524184138017965 0.11170858621052503 0.0 1.1167776422673017 0.12611102736716565 0.0 1.1595054066140509 0.11732633312723469 0.0 1.1801417788125386 0.13140027635260942 0.0 1.1454867181261672 0.13925467139856668 0.0 1.0657801673145164 0.13041353984181073 0.0 0.811856401632971 0.12010631313007736 0.0 1.097533310881202 -0.11467959735526127 0.0 0.0 0.0 0.0 1.1647517106724956 0.08718424912062031 0.0 1.0177988636183706 0.1374185462149443 0.0 0.4398084003555697 0.08628370159546242 0.0 1.1734090419814356 0.10252044985428642 0.0 1.0072196302312626 0.13527337408536064 0.0 1.1967314780327731 0.12625441358952985 0.0 0.7455077145152855 0.11747023964924998 0.0 1.1619568484001797 0.13204171189909042 0.0 0.7043710077606877 0.1149224378530707 0.0 0.36551705847515653 0.07918784722054788 0.0 1.1448052465532945 0.14033273925925102 0.0 0.8092710651857979 0.12482686817543567 0.0 1.1046333768481893 0.14157592202678662 0.0 0.9635328205155183 0.13710973206724353 0.0 0.9108005140778378 0.1326764916138704 0.0 1.1869155919725114 0.13040519753481408 0.0 1.1445470000896738 0.1357770297207816 0.0 1.1544170500696103 0.11187118714757045 0.0 0.2270921206475871 0.06257066113168833 0.0 0.9341654444254673 0.08985775421047423 0.0 1.154255757054035 0.1373562600691695 0.0 1.134037472572803 0.13912240640006068 0.0 1.1083410249353807 0.12189994756726932 0.0 1.1260573364800142 0.12823571201915904 0.0 1.1296898961496173 0.11424224206332564 0.0 0.9948755020963359 0.0838975025428419 0.0 1.0257126253763493 0.13451911342071937 0.0 1.0278125788058106 0.10510119680135224 0.0 1.111633371287017 0.11437616228422125 0.0 0.8201198934365564 0.07132172403103193 0.0 1.1196288832591952 0.13315466963785436 0.0 1.0856006472737065 0.12983563685537808 0.0 1.0905049993218654 0.13888671166122835 0.0 1.033644597305859 0.1057400920998162 0.0 0.0 0.0 0.0 0.6487112070087553 -0.007142196216199137 0.0 1.091062557988939 0.409748939607544 0.0 1.183108118626181 0.38644647889966866 0.0 1.0981140834849006 -0.40264455469096727 0.0 0.859591445070333 -0.20699847460648907 0.0 0.9711771997148158 -0.224800988943401 0.0 0.8937258381868743 -0.08355320255429283 0.0 1.2582510208194304 -0.012161735696821477 0.0 1.1650563237451408 -0.025522548027634952 0.0 1.2491021223115755 -0.0554993973557608 0.0 1.1775992121183718 -0.037272970682972 0.0 1.2188340599883403 -0.010996071825637103 0.0 -0.1426754075710913 -0.007572372748327644 0.0 -0.13336612702253833 0.025964096921126115 0.0 -0.07290080071965402 0.024442365794178758 0.0 -0.07744936975427305 0.04011529140280131 0.0 0.06581872861766978 0.037367050096667014 0.0 -0.11562665399587854 0.030982273465001493 0.0 -0.03883011700790787 0.05791622641350241 0.0 0.0884950531017862 0.04516230711881575 0.0 -0.03324841266359332 0.06972427281392558 0.0 -0.08148783374726362 0.04694083057513087 0.0 0.9885262160871038 0.11920557844719631 0.0 -0.1308197933291371 0.019089775820476818 0.0 1.1795431527470395 -0.13681823233453988 0.0 1.1592165531847842 -0.14648200516915796 0.0 1.054752050737469 -0.14712255100832058 0.0 1.1294637183890348 -0.14530934667245377 0.0 1.1279303772167202 -0.1177868418952089 0.0 1.0208467911181116 -0.1429889483722738 0.0 1.143598108392613 -0.1266597265711695 0.0 1.1042132356816785 -0.13805219002825816 0.0 1.132816346360582 -0.14051894468812728 0.0 0.975658944107796 -0.12586709156718986 0.0 1.0088971006573955 -0.1337957525755525 0.0 0.794793335798232 -0.1211748391700081 0.0 1.1052083066715577 -0.12942155817581366 0.0 1.1121669385718913 -0.10758476295512537 0.0 1.08254363611105 -0.11914866341389808 0.0 0.9463405134793208 -0.08730336755488805 0.0 1.1219315026193442 -0.1169907905185179 0.0 0.8356053058226922 -0.10747263839759752 0.0 1.1016957913841672 -0.10789349529199024 0.0 1.0136486249737573 -0.1118970381773829 0.0 0.7922174009662605 -0.08870644330026403 0.0 0.9401872122954872 -0.08320350098351735 0.0 0.8723431505478338 -0.1009606747193948 0.0 0.4094410860781602 -0.06617897172295595 0.0 0.9712272380099024 -0.0987270156188772 0.0 0.6479059644445753 -0.08527244878366196 0.0 1.0782085073756542 -0.0756724