<?xml version="1.0"?>
<VTKFile type="UnstructuredGrid"  version="0.1"  >
<UnstructuredGrid>
<Piece  NumberOfPoints="1289" NumberOfCells="2413">
<Points>
<DataArray  type="Float64"  NumberOfComponents="3"  format="ascii">0 0 0  0 0.41 0  2.2 0.41 0  2.2 0 0  0.1 0.1 0  0.1 0.3 0  0.8 0.3 0  0.8 0.1 0  0.25 0.2 0  0.248976 0.210065 0  0.245948 0.219718 0  0.241038 0.228563 0  0.234448 0.23624 0  0.226448 0.242432 0  0.217365 0.246888 0  0.207571 0.249423 0  0.197468 0.249936 0  0.187467 0.248404 0  0.17798 0.24489 0  0.169395 0.239539 0  0.162062 0.232569 0  0.156283 0.224265 0  0.152293 0.214968 0  0.150257 0.205058 0  0.150257 0.194942 0  0.152293 0.185032 0  0.156283 0.175735 0  0.162062 0.167431 0  0.169395 0.160461 0  0.17798 0.15511 0  0.187467 0.151596 0  0.197468 0.150064 0  0.207571 0.150577 0  0.217365 0.153112 0  0.226448 0.157568 0  0.234448 0.16376 0  0.241038 0.171437 0  0.245948 0.180282 0  0.248976 0.189935 0  1.1 0 0  1.1 0.41 0  0.1 0.2 0  0.45 0.1 0  0.45 0.3 0  0.55 0 0  0.275 0.1 0  0.275 0.3 0  0.275 0 0  0.55 0.41 0  0 0.205 0  0.825 0 0  0.825 0.41 0  0.275 0.41 0  0.1 0.15 0  0.1875 0.1 0  0.1 0.25 0  0.1875 0.3 0  0.132322 0.2 0  0.241426 0.253518 0  0.241426 0.146482 0  0.264574 0.17974 0  0.264574 0.22026 0  0.138434 0.187348 0  0.153372 0.150948 0  0.148413 0.164094 0  0.176495 0.136535 0  0.22768 0.143571 0  0.138434 0.212652 0  0.148413 0.235906 0  0.176495 0.263465 0  0.22768 0.256429 0  0.23125 0.3 0  0.24769 0.24094 0  0.23125 0.1 0  0.24769 0.15906 0  0.26253 0.193641 0  0.190482 0.137872 0  0.166753 0.146661 0  0.157737 0.244461 0  0.190482 0.262128 0  0.203107 0.261264 0  0.253635 0.22977 0  0.203107 0.138736 0  0.253635 0.17023 0  0.261028 0.206206 0  0.167707 0.251809 0  0.143629 0.224191 0  0.215302 0.2591 0  0.270465 0.245894 0  0.215302 0.1409 0  0.270465 0.154106 0  0.284052 0.202587 0  0.14375 0.3 0  0.209375 0.3 0  0.225966 0.278501 0  0.209375 0.1 0  0.225966 0.121499 0  0.211613 0.273759 0  0.211613 0.126241 0  0.143629 0.175809 0  0.1 0.175 0  0.133484 0.164832 0  0.144491 0.249539 0  0.1 0.225 0  0.133484 0.235168 0  0.3625 0.3 0  0.25691 0.253381 0  0.25691 0.146619 0  0.277205 0.188698 0  0.184724 0.275712 0  0.237372 0.268285 0  0.184724 0.124288 0  0.237372 0.131715 0  0.197578 0.273149 0  0.193656 0.286994 0  0.197578 0.126851 0  0.193656 0.113006 0  0.122953 0.187671 0  0.118362 0.153758 0  0.155372 0.258107 0  0.122953 0.212329 0  0.118362 0.246242 0  0.276394 0.27264 0  0.276394 0.12736 0  0.280965 0.170013 0  0.253125 0.3 0  0.14375 0.1 0  0.253125 0.1 0  0.269489 0.26014 0  0.269489 0.13986 0  0.303639 0.184297 0  0.165625 0.3 0  0.134742 0.273113 0  0.257831 0.274737 0  0.255279 0.128499 0  0.3625 0.1 0  0.165625 0.1 0  0.162031 0.132368 0  0.134955 0.126405 0  0.149334 0.125568 0  0.142936 0.139597 0  0.12695 0.140259 0  0.242514 0.285501 0  0.242514 0.114499 0  0.1 0.125 0  0.117483 0.12555 0  0.11154 0.139776 0  0.121875 0.1 0  0.109143 0.1125 0  0.126805 0.114 0  0.220313 0.29129 0  0.351562 0.287369 0  0.207222 0.2866 0  0.220312 0.10871 0  0.1375 0 0  0.20625 0 0  0.207222 0.1134 0  0.11722 0.17118 0  0.1 0.1625 0  0.0778409 0.16875 0  0.0862762 0.15625 0  0 0.15375 0  0 0.1025 0  0.11722 0.22882 0  0.1 0.2375 0  0 0.3075 0  0.0862762 0.23125 0  0.0598995 0.222547 0  0.0860223 0.2125 0  0.289584 0.181469 0  0.300267 0.16446 0  0.163832 0.269071 0  0.149597 0.273325 0  0.1 0.275 0  0.268498 0.285953 0  0.31875 0.3 0  0.294154 0.254672 0  0.296875 0.3 0  0.293558 0.271845 0  0.285095 0.286799 0  0.324298 0.264316 0  0.307866 0.263745 0  0.317093 0.234901 0  0.315485 0.281219 0  0.316547 0.250625 0  0.344693 0.243731 0  0.331592 0.251147 0  0.35129 0.270663 0  0.338689 0.263683 0  0.340625 0.3 0  0.249849 0.264383 0  0.265097 0.11422 0  0.284688 0.156136 0  0.242188 0.324017 0  0.0856613 0.2625 0  0.132812 0.0612217 0  0.264062 0.0612217 0  0.198437 0.07598340000000001 0  0.0860223 0.1375 0  0.0794526 0.191089 0  0.285228 0.140397 0  0.298655 0.148737 0  0.31875 0.1 0  0.327335 0.15374 0  0.296875 0.1 0  0.312289 0.155283 0  0.313348 0.135607 0  0.321802 0.173916 0  0.298433 0.134116 0  0.112124 0.2625 0  0.127526 0.259083 0  0.121875 0.3 0  0.0682687 0.241503 0  0.1 0.2875 0  0.117762 0.28125 0  0.107813 0.3 0  0.103906 0.313849 0  0.0778409 0.28125 0  0.1375 0.41 0  0.0862762 0.29375 0  0.08886860000000001 0.24375 0  0.307812 0.338778 0  0.307812 0.292227 0  0.33216 0.279164 0  0.387888 0.266414 0  0.264063 0.31948 0  0.110937 0.07598340000000001 0  0.242188 0.07598340000000001 0  0.319914 0.11839 0  0.340625 0.1 0  0.334448 0.133793 0  0.329687 0.108539 0  0.346259 0.118491 0  0.360334 0.173636 0  0.327539 0.205033 0  0.132812 0.288712 0  0.362436 0.278836 0  0.368105 0.259418 0  0.4125 0.41 0  0.329687 0.324017 0  0.329687 0.292306 0  0.285938 0.318952 0  0.417187 0.338778 0  0.324481 0.14148 0  0.351562 0.106771 0  0.40625 0.1 0  0.341028 0.168342 0  0.319221 0.190479 0  0.335292 0.184501 0  0.305563 0.20794 0  0.220313 0.31948 0  0.132812 0.332772 0  0.0865876 0.311259 0  0.0598995 0.302453 0  0.0906541 0.343255 0  0.353543 0.255837 0  0.36574 0.237633 0  0.405007 0.254279 0  0.275795 0.352123 0  0.4125 0 0  0.35493 0.137394 0  0.366563 0.120618 0  0.35917 0.205246 0  0.198438 0.318952 0  0.0626109 0.263892 0  0.40625 0.3 0  0.354809 0.155936 0  0.386512 0.146872 0  0.373101 0.159939 0  0.384375 0.1 0  0.343394 0.19929 0  0.350682 0.185683 0  0.368101 0.189748 0  0.344016 0.221511 0  0.391108 0.213329 0  0.376279 0.204783 0  0.398843 0.182768 0  0.375804 0.222746 0  0.390665 0.196958 0  0.394004 0.23518 0  0.359883 0.222828 0  0.419908 0.204359 0  0.404243 0.204783 0  0.412615 0.224526 0  0.20625 0.41 0  0.165625 0.325257 0  0.0347982 0.244954 0  0.379558 0.247154 0  0.34165 0.147603 0  0.372264 0.136992 0  0.388988 0.121989 0  0.373437 0.108554 0  0.351562 0.31948 0  0.391367 0.16527 0  0.399572 0.223324 0  0.452011 0.227371 0  0.40877 0.239392 0  0.431491 0.237337 0  0.421224 0.250459 0  0.449619 0.262098 0  0.418865 0.276779 0  0.437063 0.252274 0  0.415673 0.263227 0  0.430988 0.266772 0  0.402767 0.273419 0  0.452967 0.244883 0  0.428125 0.3 0  0.408502 0.286186 0  0.384375 0.3 0  0.392267 0.285807 0  0.465927 0.219339 0  0.43489 0.283846 0  0.376424 0.286289 0  0.625 0.3 0  0.473533 0.205186 0  0.461713 0.255517 0  0.5375 0.3 0  0.465725 0.235405 0  0.44631 0.201425 0  0.471875 0.3 0  0.494307 0.227729 0  0.459448 0.206736 0  0.462294 0.180792 0  0.478933 0.227536 0  0.486793 0.21381 0  0.486322 0.251373 0  0.50065 0.215318 0  0.54005 0.175389 0  0.474633 0.189893 0  0.512916 0.208697 0  0.49531 0.199967 0  0.475889 0.175275 0  0.625 0.1 0  0.459311 0.153933 0  0.513645 0.242704 0  0.392892 0.248539 0  0.374815 0.271913 0  0.365974 0.14871 0  0.395312 0.109184 0  0.417061 0.123981 0  0.483196 0.277003 0  0.381967 0.179632 0  0.429898 0.219374 0  0.433473 0.206165 0  0.43149 0.181038 0  0.444208 0.215487 0  0.472985 0.247309 0  0.49375 0.3 0  0.475579 0.262714 0  0.49916 0.274293 0  0.501175 0.184809 0  0.514164 0.225681 0  0.543648 0.214977 0  0.5341630000000001 0.23481 0  0.527396 0.216171 0  0.5375 0.1 0  0.534548 0.202315 0  0.561545 0.192513 0  0.5494289999999999 0.201221 0  0.570923 0.218346 0  0.412582 0.149833 0  0.489327 0.264745 0  0.502439 0.254775 0  0.462391 0.271166 0  0.496775 0.241732 0  0.5294410000000001 0.268606 0  0.482812 0.291099 0  0.46879 0.285038 0  0.452663 0.284065 0  0.51789 0.257882 0  0.53408 0.252026 0  0.560142 0.243543 0  0.545708 0.243474 0  0.547532 0.229019 0  0.55282 0.265323 0  0.398971 0.153424 0  0.400349 0.135684 0  0.410135 0.168145 0  0.428823 0.161323 0  0.415266 0.183779 0  0.329687 0.0810483 0  0.395312 0.0612217 0  0.373437 0.318952 0  0.439062 0.324017 0  0.561816 0.229354 0  0.585029 0.239287 0  0.431827 0.139854 0  0.446796 0.168929 0  0.351562 0.07598340000000001 0  0.395313 0.318944 0  0.54337 0.150762 0  0.460937 0.31948 0  0.418412 0.137529 0  0.428125 0.1 0  0.442783 0.152332 0  0.450742 0.134294 0  0.373437 0.0805201 0  0.384383 0.342558 0  0.482812 0.318952 0  0.429239 0.127457 0  0.444274 0.117405 0  0.426548 0.113815 0  0.49375 0.1 0  0.488954 0.113984 0  0.457973 0.121842 0  0.471621 0.137346 0  0.515625 0.325257 0  0.48125 0.41 0  0.417187 0.07598340000000001 0  0.496363 0.126778 0  0.479043 0.155715 0  0.439062 0.0805201 0  0.481795 0.126919 0  0.471875 0.1 0  0.489227 0.142159 0  0.515625 0.1 0  0.520062 0.147117 0  0.501244 0.161791 0  0.505431 0.112984 0  0.505344 0.14029 0  0.526563 0.119081 0  0.5181750000000001 0.131908 0  0.539868 0.136937 0  0.460937 0.108383 0  0.474242 0.114415 0  0.460937 0.0810483 0  0.487841 0.167168 0  0.526563 0.0612217 0  0.526563 0.106406 0  0.537619 0.112743 0  0.58125 0.1 0  0.559375 0.1 0  0.482812 0.08105569999999999 0  0.471883 0.0587655 0  0.570312 0.129396 0  0.548437 0.07598340000000001 0  0.504687 0.08105569999999999 0  0.49375 0.0470127 0  0.570312 0.112663 0  0.592798 0.12103 0  0.553986 0.12103 0  0.570312 0.0805201 0  0.48125 0 0  0.114787 0.2 0  0.160769 0.284765 0  0.175816 0.288361 0  0.162602 0.116048 0  0.154687 0.07598340000000001 0  0.176562 0.0805201 0  0.0598995 0.147547 0  0.307812 0.109924 0  0.291279 0.117157 0  0.278491 0.112989 0  0.285937 0.07598340000000001 0  0.307812 0.0805201 0  0.296928 0.196743 0  0.318141 0.218507 0  0.330208 0.227509 0  0.301397 0.225668 0  0.302706 0.241401 0  0.292574 0.21424 0  0.282762 0.230935 0  0.284351 0.244775 0  0.269553 0.23261 0  0.278572 0.217242 0  0.226924 0.342606 0  0.446928 0.185396 0  0.515625 0.3 0  0.504687 0.288879 0  0.515256 0.276534 0  0.529479 0.285328 0  0.58125 0.3 0  0.541969 0.272936 0  0.559375 0.3 0  0.556796 0.282529 0  0.543473 0.287206 0  0.581429 0.267774 0  0.566728 0.271171 0  0.570869 0.255585 0  0.577404 0.283865 0  0.603125 0.3 0  0.597531 0.28035 0  0.570312 0.338778 0  0.592188 0.292492 0  0.603513 0.256094 0  0.614063 0.286265 0  0.610329 0.27064 0  0.632708 0.251285 0  0.657223 0.261594 0  0.618789 0.257807 0  0.614188 0.22987 0  0.630935 0.265614 
[...]
<PointData  Vectors="v"> 
	<DataArray  type="Float64"  Name="v"  NumberOfComponents="3" format="ascii">
0.0 0.0 0.0 0.0 0.0 0.0 0.0 0.0 0.0 0.0 0.0 0.0 0.7977268773766664 -0.1895183815093042 0.0 0.8409784164663847 0.1979168735508749 0.0 1.0182496694138872 -0.009645462440854931 0.0 0.9665261208028142 0.04478029063324723 0.0 0.0 0.0 0.0 0.0 0.0 0.0 0.0 0.0 0.0 0.0 0.0 0.0 0.0 0.0 0.0 0.0 0.0 0.0 0.0 0.0 0.0 0.0 0.0 0.0 0.0 0.0 0.0 0.0 0.0 0.0 0.0 0.0 0.0 0.0 0.0 0.0 0.0 0.0 0.0 0.0 0.0 0.0 0.0 0.0 0.0 0.0 0.0 0.0 0.0 0.0 0.0 0.0 0.0 0.0 0.0 0.0 0.0 0.0 0.0 0.0 0.0 0.0 0.0 0.0 0.0 0.0 0.0 0.0 0.0 0.0 0.0 0.0 0.0 0.0 0.0 0.0 0.0 0.0 0.0 0.0 0.0 0.0 0.0 0.0 0.0 0.0 0.0 0.0 0.0 0.0 0.0 0.0 0.0 0.0 0.0 0.0 0.0 0.0 0.0 0.7648454305332643 -0.0037177568685611262 0.0 1.2037035399789986 0.13145789904767907 0.0 1.2379842553440228 -0.11015482908221778 0.0 0.0 0.0 0.0 1.3039231030051264 -0.07609149056858186 0.0 1.313168469275822 0.09073071618833492 0.0 0.0 0.0 0.0 0.0 0.0 0.0 1.0 0.0 0.0 0.0 0.0 0.0 0.0 0.0 0.0 0.0 0.0 0.0 0.8473435619490731 -0.23019794663611862 0.0 1.1554391636070267 -0.3024230343890126 0.0 0.8678135998400514 0.22343045015741206 0.0 1.168162274607994 0.30815603854931656 0.0 0.43208784507415426 -0.007146922792780689 0.0 0.16668612397980725 0.02655778193668388 0.0 0.17063958945612318 -0.02402756109185398 0.0 -0.046075099419764134 -0.07064420689574571 0.0 -0.04990880948352621 0.05732897164273438 0.0 0.33845968906673696 -0.28500258631785247 0.0 0.8744593744898995 -0.6741020613324799 0.0 0.6519694084876959 -0.696154024693248 0.0 1.2445680130397068 -0.6037095141163334 0.0 0.30257320441180996 0.0025269070480202944 0.0 0.33361160591436373 0.2669665060070307 0.0 0.6519170861380225 0.670632889849491 0.0 1.2201264977871573 0.6024210283156771 0.0 0.2916260026591132 0.00033474514404330436 0.0 1.2820273217024114 0.19269185389102972 0.0 -0.01987838407542512 0.053047319636441534 0.0 1.2738595811407296 -0.17605728425497802 0.0 -0.01752548309748288 -0.05443565608169306 0.0 -0.03594070923833227 -0.03332510519950818 0.0 1.2254338917929428 -0.3990844466595368 0.0 1.1297414661319898 -0.7318431908750359 0.0 0.8701505084291454 0.7762286121016028 0.0 1.2308346372921 0.39841326060196447 0.0 0.9098231036229992 0.16438934316422532 0.0 -0.03762469099088731 0.06597501271109299 0.0 0.9177540886403964 -0.16080330617476768 0.0 -0.0384066923838175 -0.07146870481303459 0.0 -0.030593557088912267 0.015179022912388894 0.0 1.059886845580029 0.7270950237351695 0.0 0.44730513494784774 0.5299553719102232 0.0 0.5377645681961795 0.03168485145453084 0.0 0.07433144606764167 0.04477801741951308 0.0 0.5450630081251955 -0.031025363567141227 0.0 0.08280093948474503 -0.05479284519822799 0.0 -0.11103138065522533 -0.003860689374134388 0.0 0.9686203486742022 0.2971971964595085 0.0 1.2518634824522747 0.2452204059830766 0.0 1.2952343999306688 0.20302823551563326 0.0 1.2267450927906594 -0.24439212651023054 0.0 1.2933962470286178 -0.19742617655955225 0.0 1.3040977774029459 0.253500514080858 0.0 1.3082645348675799 -0.24698357166737975 0.0 0.45050495041547206 -0.5524854477221498 0.0 0.8060843742250685 -0.14050738580743138 0.0 0.6797694682258291 -0.42127860303163744 0.0 0.8906036188054587 0.590134030568876 0.0 0.8030197190345543 0.138983191649364 0.0 0.6838950023286718 0.4163613770106697 0.0 1.2726846769098725 -0.039975729867137655 0.0 0.19295503189717642 0.03160436247671099 0.0 0.20723543357777302 -0.029320948024711118 0.0 -0.0834461820829267 -0.04531405618571067 0.0 1.301604449385222 0.42725698842128196 0.0 0.8774908149035782 0.06685114043375458 0.0 1.2983912150210333 -0.43420638521488564 0.0 0.894860045817963 -0.061168468272317415 0.0 1.3321513678701442 0.35917531858818963 0.0 1.2697757331937127 0.34494652863128483 0.0 1.3290291976654756 -0.35816271812597966 0.0 1.2621130691265632 -0.3274001068437777 0.0 0.5886383923679925 -0.1634480000696097 0.0 0.8036768082860514 -0.33101011947655323 0.0 1.0306574219196527 0.5951065364695677 0.0 0.5961604386301195 0.14740722450233884 0.0 0.8186723934226574 0.3260481498875479 0.0 0.8736676948142408 0.03371333328281246 0.0 0.9037989523264612 -0.028453492642598565 0.0 -0.035069387960878426 -0.06727393178102042 0.0 1.30831506804378 0.1339990060566511 0.0 0.9346880239766745 -0.30597349351328873 0.0 1.2933012215505026 -0.11987809882645983 0.0 0.4100795549434468 0.024630865654828405 0.0 0.43786364686420065 -0.020938531782508204 0.0 -0.12179040699584473 -0.040133101587618875 0.0 1.0618132983914534 0.3222139555916868 0.0 0.9520800717038904 0.3786999737936252 0.0 1.0287332730984249 0.06936206898745283 0.0 0.9231656624188471 -0.04940782566440387 0.0 1.2796030708146393 0.06002655905647712 0.0 1.0340729912594426 -0.318551493699773 0.0 1.0990815294279057 -0.5589033839769145 0.0 0.9408198338354394 -0.38057677875773016 0.0 1.0128170832584498 -0.42556902477841574 0.0 0.9480929584820522 -0.5390135922236066 0.0 0.8749840021395136 -0.4026246821790184 0.0 1.3092683626731094 0.15600215053424848 0.0 1.3027337365165468 -0.1476588133121488 0.0 0.8565045715795987 -0.23106458757290418 0.0 0.885526806572751 -0.3035841844606806 0.0 0.8591541116201564 -0.2955214753687997 0.0 0.8539975476832161 -0.24615346366540458 0.0 0.8578949511721247 -0.24546852557939103 0.0 0.902623806171509 -0.3095843067596267 0.0 1.3152161455210045 0.22712973132188663 0.0 1.162730947360011 -0.03642722206415582 0.0 1.3265914263201846 0.28771861466801085 0.0 1.307845036112642 -0.21047959077299733 0.0 0.0 0.0 0.0 0.0 0.0 0.0 1.3111722592513602 -0.277440822429973 0.0 0.7200904396710924 -0.26895333924894066 0.0 0.8247890149793715 -0.21043978937193644 0.0 0.8738212046648076 -0.11062582793554386 0.0 0.86572732005816 -0.16274242317162715 0.0 0.9375 0.0 0.0 0.7500000000000001 0.0 0.0 0.7273603758482998 0.2615896494632853 0.0 0.8279912739870596 0.19552162261810335 0.0 0.7499999999999999 0.0 0.0 0.8724645956370418 0.1238792093231757 0.0 0.9301114469941858 0.0404718575992824 0.0 0.8509068864965225 0.042338159439527394 0.0 -0.09146749733650973 -0.05162711229252088 0.0 0.015375966413938805 -0.04983473857162141 0.0 1.1375732960420457 0.5365401376540475 0.0 1.0324220328875435 0.45778805481330825 0.0 0.8836641608238173 0.237216333549476 0.0 1.2492293819684925 0.08441590405962493 0.0 1.2978147646203055 0.016152168215699703 0.0 0.28605356610712357 0.013943402476261305 0.0 1.3128091187325475 0.05008025500252851 0.0 0.8184675471455009 0.012030628650041956 0.0 1.2285273445531553 0.0533941357500995 0.0 0.5784837850818775 -0.016333180394704553 0.0 0.54687866284936 -0.001906958016452717 0.0 -0.008024261785374392 0.018487485783912194 0.0 1.069306990303609 -0.0009592333181303523 0.0 0.22630435914949984 0.0059637808798390065 0.0 0.1338206968264629 -0.0027108827495061646 0.0 0.2552979774982777 -0.0030359479059752456 0.0 0.7768300248048333 -0.03837595722122034 0.0 0.571258341911875 -0.02451922732865378 0.0 1.2907052832236572 -0.01644453236293783 0.0 0.6068019381383162 0.02835520656688045 0.0 1.263312889608118 -0.08628234210783213 0.0 0.09165911554100477 -0.04977969515714122 0.0 1.1505527879803874 0.11510125181627046 0.0 0.8851860616444714 0.17373058833874705 0.0 0.6964928766369376 -0.1564840183365972 0.0 1.0471348609395605 -0.05750682823635797 0.0 1.0187854342432028 -0.18445921709222182 0.0 0.8666892366601452 -0.17984512791171484 0.0 0.877911514094771 -0.02706796516947546 0.0 0.43375830696238693 -0.01924521498082571 0.0 0.24452539719364952 -0.027141973630192634 0.0 1.2967654766936325 0.002938403154016853 0.0 0.1993981610919756 -0.017597207112505696 0.0 1.3064368521964522 -0.0357598726268523 0.0 0.14876035059457368 -0.03086936555672441 0.0 0.6152369994676647 0.009101624359050412 0.0 -0.06691636514679389 -0.03738157350044112 0.0 0.6448177580456507 -0.00279315161927987 0.0 0.8840939262525072 0.28911278104798727 0.0 0.8875063198654518 0.40283163699044977 0.0 0.886174295278225 0.25611259216261223 0.0 0.9140022666639971 0.10612474027549872 0.0 0.8669402965384037 0.21386874803060502 0.0 0.9088795064823816 0.292403541147114 0.0 0.8580822524056962 0.22225784073053342 0.0 0.8013193377793588 0.17280389754039605 0.0 0.8681287094581444 0.15518731181921003 0.0 0.0 0.0 0.0 0.84210513879413 0.1689148563562874 0.0 0.8736416864324149 0.16622814304359004 0.0 1.1183005655267853 0.014694250954956906 0.0 1.2644550946713498 0.022414062180533257 0.0 1.0043994782240233 -0.020892828030608903 0.0 0.7031268371197507 -0.05584524290526274 0.0 1.2129743444654824 0.0893272337679535 0.0 0.7164778968906175 -0.1650922236606382 0.0 1.125470997153538 -0.11097320522839745 0.0 1.1078488214777278 0.012122880022954138 0.0 1.2923479980717876 0.03404632499304786 0.0 0.6988864796358055 0.029209134011863175 0.0 1.2569519185914249 0.022799007407731303 0.0 1.1029277104292328 0.047364211043412915 0.0 -0.05598857392648676 -0.011701015001731534 0.0 -0.19477681516084508 -0.006717784435060712 0.0 0.9499282467006023 0.32554984002802895 0.0 0.9935283760452523 -0.05084636674073097 0.0 0.49609474903098605 -0.035480716449042424 0.0 0.0 0.0 0.0 1.220573133549946 -0.0009738743031150783 0.0 1.2471840921395119 -0.011495800168129794 0.0 1.2326158534221892 0.06041114957094476 0.0 1.1118560862048124 -0.0677190649399317 0.0 0.4650649005356247 0.0022562805015197713 0.0 1.2567738428346116 0.053128803415717865 0.0 1.2484347271161622 0.10630806269721275 0.0 -0.002409268853190137 -0.023345308926961277 0.0 -0.16624120492721448 -0.026635168608101115 0.0 -0.15302123931301767 -0.027017231822332993 0.0 -0.15655491194258359 0.0015609870920976511 0.0 1.151534097927532 0.16485073161268363 0.0 0.7727719846522039 0.18270347674752516 0.0 0.7775352310998423 0.14616166854322082 0.0 0.7858261641453012 0.10201484849834033 0.0 0.6177760468030853 0.10372226728601645 0.0 0.38972771772705633 -0.022707321080326155 0.0 0.05692974552928439 -0.004745679359130391 0.0 0.4390877220448018 -0.04129022555515575 0.0 0.9902943337319657 0.043209494007686214 0.0 0.0 0.0 0.0 0.6341530510363298 0.04234709634809216 0.0 1.0629028317659055 0.07331589954601045 0.0 -0.22562174302840393 -0.003932350568874757 0.0 1.0793602418286266 0.22078001250167797 0.0 0.9012726869361104 0.10809175587248308 0.0 1.257235520914928 -0.07893491516632806 0.0 0.20632561998640306 0.0032704284803333236 0.0 0.4624928937720315 0.058190310902890355 0.0 0.1635347528172858 0.014964951217514314 0.0 1.268418729630785 0.08640096190868975 0.0 -0.21452587057157463 -0.011881654939701029 0.0 -0.1682098969407445 -0.01921676659694956 0.0 -0.19966106091866215 -0.008329268385979879 0.0 -0.13533708231882857 0.005063559021464864 0.0 -0.20277089882613106 0.007066450889631074 0.0 -0.2348343832180095 0.001263093573868811 0.0 -0.13733571501045824 0.0173442133556402 0.0 -0.12722082439281707 0.0030187634991054625 0.0 -0.23362013394401843 0.00673677417749513 0.0 0.04878446019035306 -0.006194107683153774 0.0 -0.12770573270829147 0.00343473808986202 0.0 -0.23223570312065825 0.023395975268009035 0.0 -0.2371199846495434 0.014701747207122137 0.0 -0.08405837027456997 0.00573701323127109 0.0 0.0 0.0 0.0 0.9369666261537039 0.22828335843566322 0.0 0.9517183322474906 0.0383235064682167 0.0 0.24151426641614268 -0.020717612954440613 0.0 0.35088536428559397 0.006278410439821049 0.0 0.6790536265336737 0.062379759295262474 0.0 1.0501457939462695 0.09768992018150667 0.0 1.2349882457628765 0.08150097044957784 0.0 1.2468533474548251 -0.021506909685132542 0.0 0.09917815058943236 0.027264369279608777 0.0 -0.10946845899892094 0.005061235761837165 0.0 0.017017522335633115 0.0015088024399306126 0.0 0.1422437699602101 -0.014227669280338213 0.0 0.14620143056542018 -0.014392212770627235 0.0 0.388323203717899 -0.039202839442987907 0.0 0.7139168937276502 -0.08071399911177533 0.0 0.9802952519266636 -0.08495030817631243 0.0 0.46502373216078147 -0.05004466330086403 0.0 0.6707844184214258 -0.06333633095390459 0.0 0.7819611670360372 -0.07815029932350337 0.0 0.8931305929385729 -0.07266879439669316 0.0 0.34488700559056357 -0.0392890172749138 0.0 1.2474565088670864 -0.09465544734753119 0.0 1.1364065751615582 -0.08357441732291922 0.0 1.2661882735842827 -0.05994636527740844 0.0 1.1306844226777852 -0.07153123836316753 0.0 -0.0692386769497717 0.016333769213236177 0.0 1.1154174208228886 -0.10094966106165866 0.0 1.139720939777681 -0.06145752521963037 0.0 1.0928913707589818 -0.11740067084244925 0.0 -0.1700341510058289 0.04134956404797467 0.0 0.5970364432340953 -0.07184654586290314 0.0 1.1830699269416958 -0.15182621668739027 0.0 0.1887485524182898 -0.021289649950996987 0.0 -0.2124559118231319 0.03878552840878509 0.0 1.2281160912709628 -0.12430209577784355 0.0 0.12667788099396188 -0.018201512123683948 0.0 -0.18801121293952142 0.03713189406441814 0.0 -0.043158030633386975 0.07361163364035238 0.0 0.0812758401933958 -0.008466871382657093 0.0 -0.08694790692756121 0.021590003943434 0.0 0.5743472499318715 -0.07970906201623063 0.0 -0.03747933930017468 0.010869730067511471 0.0 0.16378033720268775 0.0681570407135314 0.0 -0.12779609554786212 0.06530189722476668 0.0 -0.0693011269194533 0.019773026696342393 0.0 -0.13934694859725769 0.04786997264753089 0.0 0.061113988369731434 0.087747407740199 0.0 1.0791493458462167 0.08476405798558986 0.0 0.45405890084400896 0.11583287309066119 0.0 0.4718185158333959 -0.07908418523135351 0.0 0.2922379874780905 -0.02670059210225756 0.0 0.8255525104890888 -0.05342818955474095 0.0 0.37702927083098053 0.02964674735405229 0.0 1.2187067482058067 0.10691138410864907 0.0 1.0283085269808472 0.12759998127220923 0.0 1.0537531833610136 -0.12876754210314997 0.0 -0.11274048698872019 0.00387055287456719 0.0 -0.12635214248739865 0.014780552534080749 0.0 -0.21859291017025145 0.028706104166075476 0.0 -0.08674440407368326 0.050901004541002576 0.0 -0.14838787983182525 0.022561678833019922 0.0 0.4499093281341099 -0.05802868440270051 0.0 1.2163015264639885 -0.1350180729890207 0.0 0.7862638317888024 -0.09935658013106784 0.0 1.033106576828023 -0.13756694524510488 0.0 -0.036233337061339424 0.0718957286220923 0.0 0.14994012192875528 -0.028805817944821555 0.0 0.0782527803727577 -0.025291479235766145 0.0 0.37855554525992186 -0.0752550215317887 0.0 0.04578621075246419 -0.012506918176486385 0.0 1.1233135996457575 0.11395155876895875 0.0 -0.04915812424426869 0.017983727422767663 0.0 0.022536759818752507 0.0157859104912448 0.0 -0.015098550817517226 0.006573337377893699 0.0 0.20330257746749572 -0.06116028502588805 0.0 0.45325016235697607 0.08232748422798916 0.0 0.8562142883960481 -0.11516218374393475 0.0 0.68789122415345 -0.10336592115011772 0.0 0.9302098084474277 -0.10650900339483324 0.0 0.40184723073234757 -0.06056284998392362 0.0 0.9871424355397526 -0.1507762232771708 0.0 1.1943415703474933 -0.13431567974197595 0.0 1.144302753554108 -0.12458805060412154 0.0 1.1254855462372548 -0.11225975687628464 0.0 0.7874892142077715 -0.12431990725969186 0.0 0.7133899380911128 -0.12293946773418665 0.0 0.6183818538749013 -0.12207448117740527 0.0 0.5789614406479814 -0.11117080331366777 0.0 0.310040065415787 -0.0704949866701468 0.0 0.968188283033147 -0.15729005429976578 0.0 0.34311158200594905 0.05816082496967253 0.0 0.7641060051326668 0.0966174460361848 0.0 0.07856021051349432 0.04518015951111629 0.0 0.2396261974879591 0.0780396288044138 0.0 -0.13590346949287965 0.03178562254068819 0.0 1.2308981771974437 0.016523470340005317 0.0 1.0758236921539364 0.07084626873638113 0.0 1.2464339679564254 -0.04352859365185431 0.0 1.1938987329158188 -0.09118396313428294 0.0 0.3586634775765426 -0.08490637239532549 0.0 0.5976932209035689 -0.12455710429654757 0.0 0.7196065760428729 0.1206267842344537 0.0 0.12490189018794629 0.08056562729295287 0.0 1.196502160861579 0.041103443123880215 0.0 1.2370278004642143 -0.061798154468503494 0.0 0.6365718195781215 0.10507133739744215 0.0 1.200599984781774 -0.10723788607973476 0.0 0.7490121336777833 0.11203231979365952 0.0 1.227991347648811 0.12305486317112709 0.0 0.4579260819663767 0.10795721867550684 0.0 0.8622801113047831 0.14162304082474855 0.0 1.2174588261798955 0.06422664761090653 0.0 1.1010527612547472 -0.04803760339728591 0.0 1.186067309318454 -0.11936910980878133 0.0 0.9731276432589939 0.13277583331466855 0.0 1.1226636050359406 0.14494424158730945 0.0 1.1684435404085611 0.13508866513561965 0.0 1.1600651510282027 0.13093260655258543 0.0 1.1303529069442024 0.14460035288769302 0.0 1.0702753558321054 0.14913322172054422 0.0 0.821834573798945 0.14426206022156918 0.0 1.1135045319179055 -0.12255919811454945 0.0 0.0 0.0 0.0 1.1591693647649988 0.09597259251884609 0.0 1.0057860942970847 0.1452334566257626 0.0 0.4481509022005135 0.12021041720237877 0.0 1.164235365674963 0.11094586757970955 0.0 1.0033610171435643 0.1497307280481285 0.0 1.1820410167392579 0.13297656904213395 0.0 0.7457548988748511 0.13905254998104927 0.0 1.1392185884084074 0.12259117969994408 0.0 0.6808957487779667 0.12328897835796498 0.0 0.3565855144073397 0.11030163956731423 0.0 1.1232898057642329 0.1378298174058845 0.0 0.7967295337060402 0.13720358313578182 0.0 1.0778915317590043 0.12993945479020544 0.0 0.9405487859771001 0.1352364036256139 0.0 0.8746173868733969 0.11995337683528977 0.0 1.1792063519396276 0.14301614996687734 0.0 1.1351001977620114 0.1470263511957624 0.0 1.1407616621274281 0.1173672352549126 0.0 0.22766595611851276 0.10271594415282878 0.0 0.923369301742446 0.08002813032904177 0.0 1.129820394894307 0.12373041631895672 0.0 1.1073057379657432 0.12094643700536153 0.0 1.0963660964084638 0.09499333554464837 0.0 1.1068045263759847 0.10429733022106773 0.0 1.1127124680488492 0.11463006766744502 0.0 0.9813188198012811 0.08404711005118051 0.0 0.9861109795895089 0.10365618910435001 0.0 1.0168779158105623 0.08858564179566418 0.0 1.0932870498906462 0.10879326419805088 0.0 0.8083088313701795 0.0677509686586546 0.0 1.0958985160572623 0.1039754242382673 0.0 1.0592266379918356 0.09484783962428255 0.0 1.058751112350319 0.11415521984763227 0.0 1.0265946600343596 0.08556726906632325 0.0 0.0 0.0 0.0 0.648710770668663 -0.008319088325211653 0.0 1.0904422387967476 0.40887948926430695 0.0 1.182437571442792 0.3856061790260332 0.0 1.098845555191574 -0.4034407627475746 0.0 0.8601599811407308 -0.2075078391889434 0.0 0.9719301572031511 -0.22537212764179113 0.0 0.8937991331609868 -0.08395278205603787 0.0 1.263268194114485 -0.013417715251957675 0.0 1.1678550644860533 -0.02768708413962121 0.0 1.2512387517024133 -0.057247506616525876 0.0 1.1800174780019672 -0.03729496852227552 0.0 1.2218659956014164 -0.010251185103896636 0.0 -0.14172287146630547 -0.019660756346098155 0.0 -0.1377683994825257 0.012112140333649858 0.0 -0.0807050410552506 0.011226223680561365 0.0 -0.08206318793909087 0.028394216349276673 0.0 0.06025004609383772 0.027544120640197244 0.0 -0.11783326494850824 0.019806770335421785 0.0 -0.04211558036913582 0.04913792572201618 0.0 0.08592970707198384 0.038269779123164385 0.0 -0.03478170831786376 0.06348007351606619 0.0 -0.0832011894583922 0.0378625277861167 0.0 0.9872899623843768 0.11871938564271825 0.0 -0.12052927562822946 0.058218387037363484 0.0 1.2012230852423424 -0.14529851965661697 0.0 1.1787619981036406 -0.14794047822581477 0.0 1.0759066824643568 -0.1495050109738319 0.0 1.1550060504403417 -0.1585159443496382 0.0 1.139452040684379 -0.14447279944134075 0.0 1.0525287629136433 -0.16014255364133848 0.0 1.1614873290415542 -0.15058617827045315 0.0 1.132493564729036 -0.16389349802500675 0.0 1.1589852201841542 -0.16072503816508765 0.0 1.0164885329629239 -0.16128053156829902 0.0 1.0456218136199873 -0.16412199098135777 0.0 0.847852899669486 -0.1502391875733143 0.0 1.1295232755828266 -0.16133069343851011 0.0 1.115259817561515 -0.1339297544092391 0.0 1.1038990611719544 -0.15398057631323306 0.0 0.9476653773127565 -0.10167559118503085 0.0 1.1340377917190099 -0.1476453086814273 0.0 0.8908366581807616 -0.1490972915437997 0.0 1.1099705704719485 -0.1383882357742651 0.0 1.043613586017839 -0.14990745699920752 0.0 0.8465081399437201 -0.13111219289714474 0.0 0.9607994804329193 -0.11098847872110011 0.0 0.9206204875414327 -0.142628597142622 0.0 0.49103219349014415 -0.1121670061821074 0.0 1.0002041109885766 -0.13472126761427405 0.0 0.7192323512993104 -0.13114462458015738 0.0 1.05504996458