<?xml version="1.0"?>
<VTKFile type="UnstructuredGrid"  version="0.1"  >
<UnstructuredGrid>
<Piece  NumberOfPoints="1289" NumberOfCells="2413">
<Points>
<DataArray  type="Float64"  NumberOfComponents="3"  format="ascii">0 0 0  0 0.41 0  2.2 0.41 0  2.2 0 0  0.1 0.1 0  0.1 0.3 0  0.8 0.3 0  0.8 0.1 0  0.25 0.2 0  0.248976 0.210065 0  0.245948 0.219718 0  0.241038 0.228563 0  0.234448 0.23624 0  0.226448 0.242432 0  0.217365 0.246888 0  0.207571 0.249423 0  0.197468 0.249936 0  0.187467 0.248404 0  0.17798 0.24489 0  0.169395 0.239539 0  0.162062 0.232569 0  0.156283 0.224265 0  0.152293 0.214968 0  0.150257 0.205058 0  0.150257 0.194942 0  0.152293 0.185032 0  0.156283 0.175735 0  0.162062 0.167431 0  0.169395 0.160461 0  0.17798 0.15511 0  0.187467 0.151596 0  0.197468 0.150064 0  0.207571 0.150577 0  0.217365 0.153112 0  0.226448 0.157568 0  0.234448 0.16376 0  0.241038 0.171437 0  0.245948 0.180282 0  0.248976 0.189935 0  1.1 0 0  1.1 0.41 0  0.1 0.2 0  0.45 0.1 0  0.45 0.3 0  0.55 0 0  0.275 0.1 0  0.275 0.3 0  0.275 0 0  0.55 0.41 0  0 0.205 0  0.825 0 0  0.825 0.41 0  0.275 0.41 0  0.1 0.15 0  0.1875 0.1 0  0.1 0.25 0  0.1875 0.3 0  0.132322 0.2 0  0.241426 0.253518 0  0.241426 0.146482 0  0.264574 0.17974 0  0.264574 0.22026 0  0.138434 0.187348 0  0.153372 0.150948 0  0.148413 0.164094 0  0.176495 0.136535 0  0.22768 0.143571 0  0.138434 0.212652 0  0.148413 0.235906 0  0.176495 0.263465 0  0.22768 0.256429 0  0.23125 0.3 0  0.24769 0.24094 0  0.23125 0.1 0  0.24769 0.15906 0  0.26253 0.193641 0  0.190482 0.137872 0  0.166753 0.146661 0  0.157737 0.244461 0  0.190482 0.262128 0  0.203107 0.261264 0  0.253635 0.22977 0  0.203107 0.138736 0  0.253635 0.17023 0  0.261028 0.206206 0  0.167707 0.251809 0  0.143629 0.224191 0  0.215302 0.2591 0  0.270465 0.245894 0  0.215302 0.1409 0  0.270465 0.154106 0  0.284052 0.202587 0  0.14375 0.3 0  0.209375 0.3 0  0.225966 0.278501 0  0.209375 0.1 0  0.225966 0.121499 0  0.211613 0.273759 0  0.211613 0.126241 0  0.143629 0.175809 0  0.1 0.175 0  0.133484 0.164832 0  0.144491 0.249539 0  0.1 0.225 0  0.133484 0.235168 0  0.3625 0.3 0  0.25691 0.253381 0  0.25691 0.146619 0  0.277205 0.188698 0  0.184724 0.275712 0  0.237372 0.268285 0  0.184724 0.124288 0  0.237372 0.131715 0  0.197578 0.273149 0  0.193656 0.286994 0  0.197578 0.126851 0  0.193656 0.113006 0  0.122953 0.187671 0  0.118362 0.153758 0  0.155372 0.258107 0  0.122953 0.212329 0  0.118362 0.246242 0  0.276394 0.27264 0  0.276394 0.12736 0  0.280965 0.170013 0  0.253125 0.3 0  0.14375 0.1 0  0.253125 0.1 0  0.269489 0.26014 0  0.269489 0.13986 0  0.303639 0.184297 0  0.165625 0.3 0  0.134742 0.273113 0  0.257831 0.274737 0  0.255279 0.128499 0  0.3625 0.1 0  0.165625 0.1 0  0.162031 0.132368 0  0.134955 0.126405 0  0.149334 0.125568 0  0.142936 0.139597 0  0.12695 0.140259 0  0.242514 0.285501 0  0.242514 0.114499 0  0.1 0.125 0  0.117483 0.12555 0  0.11154 0.139776 0  0.121875 0.1 0  0.109143 0.1125 0  0.126805 0.114 0  0.220313 0.29129 0  0.351562 0.287369 0  0.207222 0.2866 0  0.220312 0.10871 0  0.1375 0 0  0.20625 0 0  0.207222 0.1134 0  0.11722 0.17118 0  0.1 0.1625 0  0.0778409 0.16875 0  0.0862762 0.15625 0  0 0.15375 0  0 0.1025 0  0.11722 0.22882 0  0.1 0.2375 0  0 0.3075 0  0.0862762 0.23125 0  0.0598995 0.222547 0  0.0860223 0.2125 0  0.289584 0.181469 0  0.300267 0.16446 0  0.163832 0.269071 0  0.149597 0.273325 0  0.1 0.275 0  0.268498 0.285953 0  0.31875 0.3 0  0.294154 0.254672 0  0.296875 0.3 0  0.293558 0.271845 0  0.285095 0.286799 0  0.324298 0.264316 0  0.307866 0.263745 0  0.317093 0.234901 0  0.315485 0.281219 0  0.316547 0.250625 0  0.344693 0.243731 0  0.331592 0.251147 0  0.35129 0.270663 0  0.338689 0.263683 0  0.340625 0.3 0  0.249849 0.264383 0  0.265097 0.11422 0  0.284688 0.156136 0  0.242188 0.324017 0  0.0856613 0.2625 0  0.132812 0.0612217 0  0.264062 0.0612217 0  0.198437 0.07598340000000001 0  0.0860223 0.1375 0  0.0794526 0.191089 0  0.285228 0.140397 0  0.298655 0.148737 0  0.31875 0.1 0  0.327335 0.15374 0  0.296875 0.1 0  0.312289 0.155283 0  0.313348 0.135607 0  0.321802 0.173916 0  0.298433 0.134116 0  0.112124 0.2625 0  0.127526 0.259083 0  0.121875 0.3 0  0.0682687 0.241503 0  0.1 0.2875 0  0.117762 0.28125 0  0.107813 0.3 0  0.103906 0.313849 0  0.0778409 0.28125 0  0.1375 0.41 0  0.0862762 0.29375 0  0.08886860000000001 0.24375 0  0.307812 0.338778 0  0.307812 0.292227 0  0.33216 0.279164 0  0.387888 0.266414 0  0.264063 0.31948 0  0.110937 0.07598340000000001 0  0.242188 0.07598340000000001 0  0.319914 0.11839 0  0.340625 0.1 0  0.334448 0.133793 0  0.329687 0.108539 0  0.346259 0.118491 0  0.360334 0.173636 0  0.327539 0.205033 0  0.132812 0.288712 0  0.362436 0.278836 0  0.368105 0.259418 0  0.4125 0.41 0  0.329687 0.324017 0  0.329687 0.292306 0  0.285938 0.318952 0  0.417187 0.338778 0  0.324481 0.14148 0  0.351562 0.106771 0  0.40625 0.1 0  0.341028 0.168342 0  0.319221 0.190479 0  0.335292 0.184501 0  0.305563 0.20794 0  0.220313 0.31948 0  0.132812 0.332772 0  0.0865876 0.311259 0  0.0598995 0.302453 0  0.0906541 0.343255 0  0.353543 0.255837 0  0.36574 0.237633 0  0.405007 0.254279 0  0.275795 0.352123 0  0.4125 0 0  0.35493 0.137394 0  0.366563 0.120618 0  0.35917 0.205246 0  0.198438 0.318952 0  0.0626109 0.263892 0  0.40625 0.3 0  0.354809 0.155936 0  0.386512 0.146872 0  0.373101 0.159939 0  0.384375 0.1 0  0.343394 0.19929 0  0.350682 0.185683 0  0.368101 0.189748 0  0.344016 0.221511 0  0.391108 0.213329 0  0.376279 0.204783 0  0.398843 0.182768 0  0.375804 0.222746 0  0.390665 0.196958 0  0.394004 0.23518 0  0.359883 0.222828 0  0.419908 0.204359 0  0.404243 0.204783 0  0.412615 0.224526 0  0.20625 0.41 0  0.165625 0.325257 0  0.0347982 0.244954 0  0.379558 0.247154 0  0.34165 0.147603 0  0.372264 0.136992 0  0.388988 0.121989 0  0.373437 0.108554 0  0.351562 0.31948 0  0.391367 0.16527 0  0.399572 0.223324 0  0.452011 0.227371 0  0.40877 0.239392 0  0.431491 0.237337 0  0.421224 0.250459 0  0.449619 0.262098 0  0.418865 0.276779 0  0.437063 0.252274 0  0.415673 0.263227 0  0.430988 0.266772 0  0.402767 0.273419 0  0.452967 0.244883 0  0.428125 0.3 0  0.408502 0.286186 0  0.384375 0.3 0  0.392267 0.285807 0  0.465927 0.219339 0  0.43489 0.283846 0  0.376424 0.286289 0  0.625 0.3 0  0.473533 0.205186 0  0.461713 0.255517 0  0.5375 0.3 0  0.465725 0.235405 0  0.44631 0.201425 0  0.471875 0.3 0  0.494307 0.227729 0  0.459448 0.206736 0  0.462294 0.180792 0  0.478933 0.227536 0  0.486793 0.21381 0  0.486322 0.251373 0  0.50065 0.215318 0  0.54005 0.175389 0  0.474633 0.189893 0  0.512916 0.208697 0  0.49531 0.199967 0  0.475889 0.175275 0  0.625 0.1 0  0.459311 0.153933 0  0.513645 0.242704 0  0.392892 0.248539 0  0.374815 0.271913 0  0.365974 0.14871 0  0.395312 0.109184 0  0.417061 0.123981 0  0.483196 0.277003 0  0.381967 0.179632 0  0.429898 0.219374 0  0.433473 0.206165 0  0.43149 0.181038 0  0.444208 0.215487 0  0.472985 0.247309 0  0.49375 0.3 0  0.475579 0.262714 0  0.49916 0.274293 0  0.501175 0.184809 0  0.514164 0.225681 0  0.543648 0.214977 0  0.5341630000000001 0.23481 0  0.527396 0.216171 0  0.5375 0.1 0  0.534548 0.202315 0  0.561545 0.192513 0  0.5494289999999999 0.201221 0  0.570923 0.218346 0  0.412582 0.149833 0  0.489327 0.264745 0  0.502439 0.254775 0  0.462391 0.271166 0  0.496775 0.241732 0  0.5294410000000001 0.268606 0  0.482812 0.291099 0  0.46879 0.285038 0  0.452663 0.284065 0  0.51789 0.257882 0  0.53408 0.252026 0  0.560142 0.243543 0  0.545708 0.243474 0  0.547532 0.229019 0  0.55282 0.265323 0  0.398971 0.153424 0  0.400349 0.135684 0  0.410135 0.168145 0  0.428823 0.161323 0  0.415266 0.183779 0  0.329687 0.0810483 0  0.395312 0.0612217 0  0.373437 0.318952 0  0.439062 0.324017 0  0.561816 0.229354 0  0.585029 0.239287 0  0.431827 0.139854 0  0.446796 0.168929 0  0.351562 0.07598340000000001 0  0.395313 0.318944 0  0.54337 0.150762 0  0.460937 0.31948 0  0.418412 0.137529 0  0.428125 0.1 0  0.442783 0.152332 0  0.450742 0.134294 0  0.373437 0.0805201 0  0.384383 0.342558 0  0.482812 0.318952 0  0.429239 0.127457 0  0.444274 0.117405 0  0.426548 0.113815 0  0.49375 0.1 0  0.488954 0.113984 0  0.457973 0.121842 0  0.471621 0.137346 0  0.515625 0.325257 0  0.48125 0.41 0  0.417187 0.07598340000000001 0  0.496363 0.126778 0  0.479043 0.155715 0  0.439062 0.0805201 0  0.481795 0.126919 0  0.471875 0.1 0  0.489227 0.142159 0  0.515625 0.1 0  0.520062 0.147117 0  0.501244 0.161791 0  0.505431 0.112984 0  0.505344 0.14029 0  0.526563 0.119081 0  0.5181750000000001 0.131908 0  0.539868 0.136937 0  0.460937 0.108383 0  0.474242 0.114415 0  0.460937 0.0810483 0  0.487841 0.167168 0  0.526563 0.0612217 0  0.526563 0.106406 0  0.537619 0.112743 0  0.58125 0.1 0  0.559375 0.1 0  0.482812 0.08105569999999999 0  0.471883 0.0587655 0  0.570312 0.129396 0  0.548437 0.07598340000000001 0  0.504687 0.08105569999999999 0  0.49375 0.0470127 0  0.570312 0.112663 0  0.592798 0.12103 0  0.553986 0.12103 0  0.570312 0.0805201 0  0.48125 0 0  0.114787 0.2 0  0.160769 0.284765 0  0.175816 0.288361 0  0.162602 0.116048 0  0.154687 0.07598340000000001 0  0.176562 0.0805201 0  0.0598995 0.147547 0  0.307812 0.109924 0  0.291279 0.117157 0  0.278491 0.112989 0  0.285937 0.07598340000000001 0  0.307812 0.0805201 0  0.296928 0.196743 0  0.318141 0.218507 0  0.330208 0.227509 0  0.301397 0.225668 0  0.302706 0.241401 0  0.292574 0.21424 0  0.282762 0.230935 0  0.284351 0.244775 0  0.269553 0.23261 0  0.278572 0.217242 0  0.226924 0.342606 0  0.446928 0.185396 0  0.515625 0.3 0  0.504687 0.288879 0  0.515256 0.276534 0  0.529479 0.285328 0  0.58125 0.3 0  0.541969 0.272936 0  0.559375 0.3 0  0.556796 0.282529 0  0.543473 0.287206 0  0.581429 0.267774 0  0.566728 0.271171 0  0.570869 0.255585 0  0.577404 0.283865 0  0.603125 0.3 0  0.597531 0.28035 0  0.570312 0.338778 0  0.592188 0.292492 0  0.603513 0.256094 0  0.614063 0.286265 0  0.610329 0.27064 0  0.632708 0.251285 0  0.657223 0.261594 0  0.618789 0.257807 0  0.614188 0.22987 0  0.630935 0.265614 
[...]
<PointData  Vectors="v"> 
	<DataArray  type="Float64"  Name="v"  NumberOfComponents="3" format="ascii">
0.0 0.0 0.0 0.0 0.0 0.0 0.0 0.0 0.0 0.0 0.0 0.0 0.7969711837120038 -0.18809556512916462 0.0 0.8417721291115607 0.19936010135871635 0.0 1.0164535442889386 -0.05446890514801954 0.0 0.9748872248111279 0.009712368705542004 0.0 0.0 0.0 0.0 0.0 0.0 0.0 0.0 0.0 0.0 0.0 0.0 0.0 0.0 0.0 0.0 0.0 0.0 0.0 0.0 0.0 0.0 0.0 0.0 0.0 0.0 0.0 0.0 0.0 0.0 0.0 0.0 0.0 0.0 0.0 0.0 0.0 0.0 0.0 0.0 0.0 0.0 0.0 0.0 0.0 0.0 0.0 0.0 0.0 0.0 0.0 0.0 0.0 0.0 0.0 0.0 0.0 0.0 0.0 0.0 0.0 0.0 0.0 0.0 0.0 0.0 0.0 0.0 0.0 0.0 0.0 0.0 0.0 0.0 0.0 0.0 0.0 0.0 0.0 0.0 0.0 0.0 0.0 0.0 0.0 0.0 0.0 0.0 0.0 0.0 0.0 0.0 0.0 0.0 0.0 0.0 0.0 0.0 0.0 0.0 0.7648671788329094 -0.0008900234207726951 0.0 1.2303424028768606 0.11785468223418245 0.0 1.2121715652267147 -0.12725081040271075 0.0 0.0 0.0 0.0 1.2985887494014707 -0.0756962055293259 0.0 1.318638882489342 0.09084704081942994 0.0 0.0 0.0 0.0 0.0 0.0 0.0 1.0 0.0 0.0 0.0 0.0 0.0 0.0 0.0 0.0 0.0 0.0 0.0 0.8465987927839006 -0.22785299011239152 0.0 1.1530375867410745 -0.30113413801605093 0.0 0.8685452316858645 0.22575352355677672 0.0 1.170512689691037 0.3093420854266653 0.0 0.43214513343059463 -0.0034695029063077014 0.0 0.1652312151279769 0.028228301204346894 0.0 0.1723350978555763 -0.022143428083606385 0.0 -0.047691243568343644 -0.054285193052596215 0.0 -0.048781306395289395 0.07380851840804012 0.0 0.33779718137534376 -0.28093886852018357 0.0 0.8723650611419671 -0.6711299923970833 0.0 0.6501337537901535 -0.6926439403392282 0.0 1.241957461177313 -0.601744880582912 0.0 0.30375124726330305 0.0035246144249833525 0.0 0.33433017557859407 0.2710553080905824 0.0 0.653735595194736 0.6742128995330507 0.0 1.2226602199494239 0.6043557251611199 0.0 0.29064800478518876 0.0012442222025708894 0.0 1.285018289780329 0.19343872256429773 0.0 -0.020591903462409255 0.05634211774378341 0.0 1.270811298655929 -0.17511488764102703 0.0 -0.016824230319921942 -0.05126357350969503 0.0 -0.035971719610257184 -0.015222469320216276 0.0 1.2232061903434894 -0.39794031785210865 0.0 1.1269980419292236 -0.7293682427089252 0.0 0.872541004073093 0.7793068810525825 0.0 1.2332064936349527 0.39953971818820594 0.0 0.9108670188697845 0.16502560971711758 0.0 -0.037842398177889945 0.07371937903742164 0.0 0.916863948449919 -0.16016350003049323 0.0 -0.03813558386669859 -0.06403529402582818 0.0 -0.030742966008572153 0.03253605125158022 0.0 1.0623378470621987 0.7294405907439822 0.0 0.4488921881122196 0.5339503117500454 0.0 0.5376445649563011 0.03222496487534256 0.0 0.07782986653160176 0.05520632719123952 0.0 0.5454141145233528 -0.030429868463043894 0.0 0.07996569286394108 -0.04384497593837056 0.0 -0.11046822289921582 0.018837304339627485 0.0 0.970205093542039 0.29876873484614147 0.0 1.254466105030352 0.24606191559859666 0.0 1.2980274219491459 0.20412317999103244 0.0 1.2240935713410483 -0.24335512074969945 0.0 1.290806910877018 -0.19617339701057265 0.0 1.3066601937350737 0.2545525214923073 0.0 1.3058049290600737 -0.24583411631425514 0.0 0.4489213061803356 -0.5484968853880458 0.0 0.8056144795007602 -0.13773061194459715 0.0 0.6784756938744592 -0.41765976447233694 0.0 0.892570589623773 0.5930881900940134 0.0 0.8035253571432213 0.14173246981602608 0.0 0.6852506351283447 0.41999810889867095 0.0 1.2857231743765987 -0.057217685630709475 0.0 0.19229668671143224 0.036030704244893054 0.0 0.20830718366203005 -0.02474904158695256 0.0 -0.08580269223717406 -0.02383377263697926 0.0 1.3042051932949346 0.42868613803702654 0.0 0.8790217817419425 0.0681803803370055 0.0 1.2957780945922484 -0.43273609353899384 0.0 0.893703590915726 -0.059657734245796394 0.0 1.334716303840885 0.360360989999474 0.0 1.2722909008045473 0.346189847737179 0.0 1.3265663334482944 -0.3568775090562685 0.0 1.2595894056032224 -0.32612670696247237 0.0 0.5881078802711421 -0.15981970801406833 0.0 0.8026248281967812 -0.3281463767130013 0.0 1.0330134536802713 0.5975987964312033 0.0 0.5967002643493104 0.15103955288818355 0.0 0.8197395352668262 0.32890709465430745 0.0 0.8789950601372816 0.03816667491121896 0.0 0.8987820819514974 -0.02415740075478799 0.0 -0.042493034577864144 -0.048754492937754634 0.0 1.3121398035602776 0.134548779929845 0.0 0.9330838404971261 -0.3042918515662017 0.0 1.2894635311090747 -0.11903900341105972 0.0 0.41166364215117884 0.030905215322456717 0.0 0.4364769436335572 -0.014789948111943877 0.0 -0.12897789736767745 -0.016079178832217822 0.0 1.0638197031680212 0.32364484942258703 0.0 0.9536353410416106 0.3808709994951998 0.0 1.0324326706592328 0.07184542150903393 0.0 0.9209797528005608 -0.04711873571692796 0.0 1.267909517309195 0.044723125066202185 0.0 1.0320034275817844 -0.3170474690214363 0.0 1.096764634061003 -0.556742189736152 0.0 0.9392364230176095 -0.37837804228216776 0.0 1.010880077042738 -0.4234957471196249 0.0 0.9461707584379618 -0.5363591588864918 0.0 0.8736197167705112 -0.4000186397990078 0.0 1.3127561954094427 0.15720633189924507 0.0 1.299435689122583 -0.1462381550389963 0.0 0.8556837799051006 -0.2291792627881888 0.0 0.8843321538047739 -0.30149339066979874 0.0 0.8581241602539729 -0.293202704299384 0.0 0.8527797283223643 -0.24456289125051223 0.0 0.8568844642740123 -0.24372847038350937 0.0 0.9012674075885396 -0.3076740470209893 0.0 1.3179824877024624 0.22801275609661575 0.0 1.1891606524100518 -0.04857698140461436 0.0 1.3292570258064065 0.2888114377152354 0.0 1.305072732955692 -0.20943795533434265 0.0 0.0 0.0 0.0 0.0 0.0 0.0 1.3085496930671392 -0.27622097298558984 0.0 0.7193494556414816 -0.265771278042299 0.0 0.8241409658684394 -0.20790831081954622 0.0 0.8735320937680946 -0.10860118152800194 0.0 0.8652680546559408 -0.1606585229675712 0.0 0.9375 0.0 0.0 0.7500000000000001 0.0 0.0 0.7281038509328489 0.2647595518096893 0.0 0.8286388027035492 0.198061116927512 0.0 0.7499999999999999 0.0 0.0 0.8728658273227362 0.12614407856987714 0.0 0.9302659178883764 0.04192819088009191 0.0 0.8510240508737348 0.044709745413998615 0.0 -0.09755568386366735 -0.029099742636545384 0.0 0.0028561797935028684 -0.02936332771229918 0.0 1.1399359255448536 0.5386200520895661 0.0 1.0343933351678432 0.45992486445254604 0.0 0.8844724626809737 0.23911176918581942 0.0 1.2550113357404955 0.08626917491517307 0.0 1.3087420019289602 0.011430093307269571 0.0 0.29638691543535545 0.027106415450223364 0.0 1.3209679409672341 0.04872720710635971 0.0 0.8288658714940399 0.017593232078174165 0.0 1.2369134045903614 0.055265620012454816 0.0 0.6036299078443054 -0.009226763311349591 0.0 0.5627178882069076 0.007737085255497867 0.0 0.009154432909336438 0.03922818468495891 0.0 1.0878689987243948 -0.00013603143407466228 0.0 0.24734788220916676 0.021513990220130445 0.0 0.1630774772968939 0.007944842249175162 0.0 0.28318041911557507 0.009816150290427572 0.0 0.8159674848781842 -0.04486565360851284 0.0 0.6045089016104679 -0.021475693220659 0.0 1.3045088421820132 -0.026443250648973193 0.0 0.607421825890396 0.030472173143526467 0.0 1.25859540640979 -0.08393333708691567 0.0 0.08271395526511435 -0.034453169148577434 0.0 1.1535830971509138 0.11496411839832343 0.0 0.8857174455432867 0.17554007825722753 0.0 0.6952621939466826 -0.1555433777554071 0.0 1.0438689379913861 -0.05791970032667572 0.0 1.0163686351795158 -0.18374756986113086 0.0 0.8661293244109955 -0.1780581562545938 0.0 0.8778547194928046 -0.024902636208897166 0.0 0.427995697399032 -0.010125404557118968 0.0 0.23187909687328595 -0.012802955444578342 0.0 1.2862397059670843 -0.0016088680639543857 0.0 0.17521361388263512 -0.002079706601458155 0.0 1.2986479984528 -0.03647105561462642 0.0 0.13055568042607174 -0.012916119731249101 0.0 0.5974930882639947 0.016823660867651816 0.0 -0.08129556863982113 -0.016062669710174372 0.0 0.6344669590936906 0.005363373829421882 0.0 0.8851371029806357 0.29137731092564384 0.0 0.8888788781602477 0.4054542712569344 0.0 0.8873364114416641 0.2577244165272021 0.0 0.9142782220265436 0.10776872506247835 0.0 0.8677315690032188 0.21547412475147792 0.0 0.9100435379679983 0.29437363169760333 0.0 0.8590073542370176 0.22378706749332306 0.0 0.8021226929409687 0.174024288453112 0.0 0.8686286855758537 0.1565750199008407 0.0 0.0 0.0 0.0 0.8426812148365792 0.17026833798063137 0.0 0.8741488082127229 0.1683577841735907 0.0 1.1212865491249557 0.010676431625878257 0.0 1.2769637350778529 0.021512771164464203 0.0 1.0301831526222534 -0.023180264745390554 0.0 0.756506695802482 -0.08429011971117802 0.0 1.2168475340791036 0.08868522526629234 0.0 0.7155900586681779 -0.1639305183302334 0.0 1.1222819324109092 -0.1107940664132187 0.0 1.0894124814742234 0.012571585890408332 0.0 1.279837336655465 0.024593285161621146 0.0 0.6698213594084335 0.03167057611587925 0.0 1.2407128261136513 0.01737080531637766 0.0 1.0747761542556697 0.03956050146791857 0.0 -0.07633271476137567 -0.009302252131700417 0.0 -0.19218634568207862 0.01628037817475666 0.0 0.9513799257442358 0.32740942792891625 0.0 1.0314198567684854 -0.0661848102304432 0.0 0.5438400298997697 -0.04721146222048016 0.0 0.0 0.0 0.0 1.224558406805381 -0.008909769315890041 0.0 1.264680436644567 -0.017949352647854914 0.0 1.237417029458298 0.05857645070728306 0.0 1.0955385264476725 -0.07877472234966025 0.0 0.4410799863935173 0.012371435361412445 0.0 1.2388908879240095 0.040013883149527786 0.0 1.2506709673674514 0.08230173703182925 0.0 -0.023469485645872347 -0.009212906180919743 0.0 -0.17140503199479917 -0.0028564121951523895 0.0 -0.16281263273709817 -0.007602202159321671 0.0 -0.15367467485720757 0.026975579778311692 0.0 1.1542149794774326 0.16528434294324917 0.0 0.7739124617325699 0.18374719183402588 0.0 0.7780608371939429 0.14727302101900572 0.0 0.7861018451975564 0.10288701954374249 0.0 0.618311602742914 0.10447890936543365 0.0 0.4299278416171716 -0.023041451900110442 0.0 0.08807947381235592 -0.009612200732844392 0.0 0.49009709075154023 -0.08488446682333546 0.0 0.9926499198528713 0.04150649404011816 0.0 0.0 0.0 0.0 0.5936395990845005 0.03737680190734235 0.0 1.02799293616365 0.05659595203730488 0.0 -0.2221961273252736 0.0014111244246658747 0.0 1.0816801815840917 0.22152609981247118 0.0 0.9015450447922888 0.10936532880925293 0.0 1.2568694321437306 -0.10562266304265884 0.0 0.17304220144179822 0.006521908483679111 0.0 0.41358766361055876 0.03200586218923647 0.0 0.12939676279065065 0.004381876234745234 0.0 1.261676952494878 0.06519587323138713 0.0 -0.2153377971473423 0.004431362625933884 0.0 -0.1789290727089389 -0.007542469958835058 0.0 -0.20873104245760613 -0.011235842880868945 0.0 -0.12201682688249714 0.019877662807786182 0.0 -0.1916057388379348 -0.02273255760582326 0.0 -0.23178630040646253 -0.01041999707161443 0.0 -0.1530370361243512 -0.022563756172468967 0.0 -0.10922908537144327 -0.010377073002001429 0.0 -0.23719816948235856 -0.02289051007538733 0.0 0.08070932272538582 -0.039064498057419274 0.0 -0.10960728617016668 0.006620452728460507 0.0 -0.22881521837741853 -0.047088658990309326 0.0 -0.2340746452033975 -0.03472274430345032 0.0 -0.06425104211241718 -0.05174767491676345 0.0 0.0 0.0 0.0 0.9387686988147174 0.22930606260258354 0.0 0.9517571270941375 0.03905896141423566 0.0 0.2846043220124979 -0.038872070470631 0.0 0.31883690775850354 0.014037771849358262 0.0 0.6309843836953668 0.04541612677933558 0.0 1.0121946782199238 0.07007248327598867 0.0 1.2155717351534476 0.060604620489376086 0.0 1.2500828123994383 -0.0335404640473861 0.0 0.06789323397430219 -0.0028311804004616786 0.0 -0.08948884870696908 -0.03552889593508101 0.0 0.021030017719580407 -0.08772417491710144 0.0 0.17684200891403712 -0.06388571860807024 0.0 0.1715622291440443 -0.0852540096916649 0.0 0.430622362222747 -0.09593257742867269 0.0 0.7366606984062318 -0.13436475150496058 0.0 1.0139445904867355 -0.12563020583609683 0.0 0.49863170068747215 -0.11339181535611907 0.0 0.7203867940812227 -0.11119589503539475 0.0 0.8201823151555259 -0.12845203081353473 0.0 0.9387213585358289 -0.10999341747749188 0.0 0.35823316180231546 -0.1114285305690151 0.0 1.2349328538798008 -0.11962371045323933 0.0 1.1575988574776148 -0.11750662060080748 0.0 1.27538419110974 -0.08298093705795634 0.0 1.1591268323981876 -0.10103965430440114 0.0 -0.07818283511620215 -0.08353597539685953 0.0 1.1219906133334347 -0.1357514784048616 0.0 1.1694825363500514 -0.08492212749837072 0.0 1.1236976574744102 -0.08644084936115085 0.0 -0.17273707886666792 -0.06484375883290516 0.0 0.6041005955440198 -0.1289009581868524 0.0 1.1418356173951123 -0.1029891196435315 0.0 0.18113436561490437 -0.10315079042815462 0.0 -0.2127167835517967 -0.057480611306684595 0.0 1.1899450911089962 -0.12692787491465984 0.0 0.08048994389605832 -0.0906596502169457 0.0 -0.18756849226102393 -0.06716656768621201 0.0 -0.03366120432956111 -0.01976170899456975 0.0 0.0555155596670944 -0.09326575523607053 0.0 -0.1079905896983427 -0.07377405945419681 0.0 0.5434217450275108 -0.12348112007317885 0.0 -0.07345719919128539 -0.06923427827203554 0.0 0.286886287046197 0.0808698661114511 0.0 -0.11365679713091187 -0.0365192160830854 0.0 -0.09318325862998475 -0.04740793912008298 0.0 -0.13114438056849173 -0.044614569627529646 0.0 0.08692496527052197 0.003036422132864977 0.0 1.044375634093158 0.10800889788203255 0.0 0.4483175071413934 0.050794252610431266 0.0 0.3906061107049081 -0.0993552929785417 0.0 0.3381798720653218 -0.05964385912986057 0.0 0.8731327942588267 -0.07458008495722032 0.0 0.3350715361725013 0.02160574805782171 0.0 1.2032014332238725 0.07866778862346141 0.0 0.9972454501333711 0.08868228285315587 0.0 1.0202649379947442 -0.13864476476854828 0.0 -0.13136563560702846 -0.015586016390421176 0.0 -0.1153765441523874 -0.0640219068579661 0.0 -0.2145186959453734 -0.056532309580055784 0.0 -0.09805964595951835 -0.027696574645186135 0.0 -0.14322067763281743 -0.07096384444879812 0.0 0.43829555072815857 -0.12031402991463944 0.0 1.1701077008938885 -0.11995835349136255 0.0 0.7728541811273258 -0.13626370100109111 0.0 0.9837431752821891 -0.13201728771634996 0.0 0.01444213588528883 0.0011892827679429662 0.0 0.07495113453264045 -0.07473518622547973 0.0 0.0031014857325982956 -0.024445286623316884 0.0 0.26190696141807784 -0.07188635277383247 0.0 -0.019183039857985227 -0.04622810665156999 0.0 1.1576491986247293 0.16007760003263952 0.0 -0.046120807253943776 -0.007265976244824382 0.0 0.09812095881729394 0.05647383134949515 0.0 -0.002927137392650237 0.01589267381483909 0.0 0.09229179171945341 0.0008760509367080377 0.0 0.40892275917966836 0.03341073371528171 0.0 0.8209168039983357 -0.13346410201130118 0.0 0.6311479694023132 -0.11928235206426763 0.0 0.9281649888007162 -0.14224989731664095 0.0 0.34942139803596045 -0.10818405506059783 0.0 0.9047388516712772 -0.11038648991793476 0.0 1.1527666741997464 -0.1320410899825962 0.0 1.1183149824037406 -0.1399135557242273 0.0 1.1162029257253065 -0.13944700916873567 0.0 0.7068449266372615 -0.11174078917497601 0.0 0.6052893190603077 -0.09422806054694301 0.0 0.47025125440390747 -0.05967658244914953 0.0 0.44700679549286865 -0.07224925824214389 0.0 0.18230490963312695 -0.04810898938961265 0.0 0.8667936317262656 -0.09266797314246734 0.0 0.3001386448408545 0.020339135835531274 0.0 0.7137042099488123 0.06014709386909838 0.0 0.05136850396255806 -0.007399897364380543 0.0 0.2126476027269929 0.01155050598508973 0.0 -0.14907396428076505 -0.027853667921574565 0.0 1.2254956551241565 0.00932124490092821 0.0 1.0853907508137377 0.059791368266188194 0.0 1.2458772403718592 -0.06001685912523603 0.0 1.1680917053867899 -0.1015893235909666 0.0 0.21408611477689918 -0.03262088283730751 0.0 0.4346319845902254 -0.0324393336357046 0.0 0.6829566283703797 0.06837391696390617 0.0 0.11669025960109859 0.0001501127145991217 0.0 1.1945116827416549 0.030673121582413365 0.0 1.229182111064117 -0.08049179221374111 0.0 0.7539105276360709 0.1517945210837481 0.0 1.1673875341687698 -0.10891671454977726 0.0 0.704587254028564 0.06490217167526618 0.0 1.2413137648315682 0.1013993641278086 0.0 0.4341098048375514 0.04275879967220659 0.0 0.8476803770775535 0.09669838939051587 0.0 1.2185003164527874 0.04941755107032547 0.0 1.0936812308432071 -0.059148769237234784 0.0 1.148540506467932 -0.10916510081832934 0.0 0.9459900281239245 0.09090388309048436 0.0 1.1260970286926941 0.11457140405266147 0.0 1.1623295595869803 0.10269166741997243 0.0 1.203653917514895 0.1477545497388574 0.0 1.1735790662912313 0.15270281898923607 0.0 1.0803821555846527 0.12285598979035842 0.0 0.8327951663642487 0.10947743284258371 0.0 1.083737665660152 -0.09550442374024692 0.0 0.0 0.0 0.0 1.1761621791927859 0.08183658821524112 0.0 1.0526456314617456 0.1516173573104378 0.0 0.47163366897967224 0.06515184006812161 0.0 1.1888339131530983 0.10105018614480787 0.0 1.0351522179757802 0.13929289644009624 0.0 1.2193159808382756 0.13289408858785 0.0 0.7816085043017601 0.11619212555778656 0.0 1.181596597007975 0.15687535552874537 0.0 0.764674614896069 0.1377093387015922 0.0 0.41935926418122116 0.07316709074140887 0.0 1.1742618971125607 0.1630236789710813 0.0 0.8561224452321309 0.1385363572358257 0.0 1.137593144584778 0.17461242019365197 0.0 1.0095453202106683 0.16553075323963642 0.0 0.965790178629032 0.17320303789871375 0.0 1.2072547338348854 0.13033732079896612 0.0 1.1690004338042435 0.1402723661777057 0.0 1.17220585134487 0.11630105499214337 0.0 0.26941037342367075 0.03841177647914558 0.0 0.9332695887114427 0.1050102109204903 0.0 1.175293993496329 0.16765142867283953 0.0 1.156828213920668 0.17405404251336276 0.0 1.0996059285118178 0.1467874540082486 0.0 1.1291816727237003 0.15821894915902332 0.0 1.1466247496152457 0.1253313163035522 0.0 1.0076852213623497 0.0903132598672948 0.0 1.0583232996668461 0.17887639732067173 0.0 1.0237368115075682 0.12543146118442333 0.0 1.1258182959056124 0.13117051676864946 0.0 0.8236967760076082 0.07997182536586198 0.0 1.1268104272543265 0.16775357337216024 0.0 1.0898487065956477 0.16273368340763883 0.0 1.1174318535458567 0.17938489521227505 0.0 1.0225445695596929 0.12451484717045475 0.0 0.0 0.0 0.0 0.6487364573175521 -0.005111436061365232 0.0 1.0925029434392468 0.41065205145197853 0.0 1.1847469018881103 0.38704926152426034 0.0 1.0966388499871034 -0.4016785158862974 0.0 0.8585170943396053 -0.20643710932440357 0.0 0.9698491834883427 -0.22434170555424437 0.0 0.8935711155847574 -0.08266640903719816 0.0 1.250546785810142 -0.013553742311931584 0.0 1.1583118755586932 -0.02495610448267901 0.0 1.2443999443338116 -0.05505121098146972 0.0 1.175434553488781 -0.038834457686564634 0.0 1.2165351831469775 -0.013956204055325272 0.0 -0.14359235578977345 0.004740962042715977 0.0 -0.1286331155798325 0.035813595253420746 0.0 -0.06451796757316283 0.030484152041187176 0.0 -0.07192941962503453 0.05133329271616118 0.0 0.07508126869468312 0.04633838790188906 0.0 -0.1131811872487211 0.04302995545433823 0.0 -0.03419321134407405 0.06863615340167745 0.0 0.09493220292690964 0.05311812794006027 0.0 -0.030716937760812434 0.07877679861886838 0.0 -0.07960072842176667 0.058521669606197514 0.0 0.98969197503577 0.11866520844037232 0.0 -0.12283673838062932 -0.03581980285620837 0.0 1.1541902835082027 -0.11152285678809458 0.0 1.1264048379038054 -0.12484007568778831 0.0 1.0124190676802536 -0.12169914454624038 0.0 1.0945592169453073 -0.11156048133126546 0.0 1.1295842206558697 -0.08789929286346802 0.0 0.9713099849670447 -0.10353521965667206 0.0 1.13461686198947 -0.09290256987091144 0.0 1.0726707865372167 -0.09637090584811313 0.0 1.1033593120217637 -0.10287752263616923 0.0 0.9261339994405149 -0.07773419426241117 0.0 0.9609193193773429 -0.08682688191385418 0.0 0.7174755360043756 -0.06972140370337655 0.0 1.0851866508640946 -0.0886667541170096 0.0 1.1259873319363438 -0.08570695527260566 0.0 1.0693391107543515 -0.08265015331423949 0.0 0.9563930109343349 -0.07164471749748039 0.0 1.123093560037489 -0.0859490600605617 0.0 0.7758504807356297 -0.05534966163365532 0.0 1.1083780606079587 -0.08447202067634108 0.0 0.9901863219575501 -0.07450868129877916 0.0 0.754898678202711 -0.045699324324934884 0.0 0.9476414822634801 -0.07325093592561997 0.0 0.8301541714631603 -0.05688015823363327 0.0 0.34506508854106677 0.007822799179621089 0.0 0.9566316943933802 -0.07047991965044685 0.0 0.5873110117085325 -0.026099166480