<?xml version="1.0"?>
<VTKFile type="UnstructuredGrid"  version="0.1"  >
<UnstructuredGrid>
<Piece  NumberOfPoints="1289" NumberOfCells="2413">
<Points>
<DataArray  type="Float64"  NumberOfComponents="3"  format="ascii">0 0 0  0 0.41 0  2.2 0.41 0  2.2 0 0  0.1 0.1 0  0.1 0.3 0  0.8 0.3 0  0.8 0.1 0  0.25 0.2 0  0.248976 0.210065 0  0.245948 0.219718 0  0.241038 0.228563 0  0.234448 0.23624 0  0.226448 0.242432 0  0.217365 0.246888 0  0.207571 0.249423 0  0.197468 0.249936 0  0.187467 0.248404 0  0.17798 0.24489 0  0.169395 0.239539 0  0.162062 0.232569 0  0.156283 0.224265 0  0.152293 0.214968 0  0.150257 0.205058 0  0.150257 0.194942 0  0.152293 0.185032 0  0.156283 0.175735 0  0.162062 0.167431 0  0.169395 0.160461 0  0.17798 0.15511 0  0.187467 0.151596 0  0.197468 0.150064 0  0.207571 0.150577 0  0.217365 0.153112 0  0.226448 0.157568 0  0.234448 0.16376 0  0.241038 0.171437 0  0.245948 0.180282 0  0.248976 0.189935 0  1.1 0 0  1.1 0.41 0  0.1 0.2 0  0.45 0.1 0  0.45 0.3 0  0.55 0 0  0.275 0.1 0  0.275 0.3 0  0.275 0 0  0.55 0.41 0  0 0.205 0  0.825 0 0  0.825 0.41 0  0.275 0.41 0  0.1 0.15 0  0.1875 0.1 0  0.1 0.25 0  0.1875 0.3 0  0.132322 0.2 0  0.241426 0.253518 0  0.241426 0.146482 0  0.264574 0.17974 0  0.264574 0.22026 0  0.138434 0.187348 0  0.153372 0.150948 0  0.148413 0.164094 0  0.176495 0.136535 0  0.22768 0.143571 0  0.138434 0.212652 0  0.148413 0.235906 0  0.176495 0.263465 0  0.22768 0.256429 0  0.23125 0.3 0  0.24769 0.24094 0  0.23125 0.1 0  0.24769 0.15906 0  0.26253 0.193641 0  0.190482 0.137872 0  0.166753 0.146661 0  0.157737 0.244461 0  0.190482 0.262128 0  0.203107 0.261264 0  0.253635 0.22977 0  0.203107 0.138736 0  0.253635 0.17023 0  0.261028 0.206206 0  0.167707 0.251809 0  0.143629 0.224191 0  0.215302 0.2591 0  0.270465 0.245894 0  0.215302 0.1409 0  0.270465 0.154106 0  0.284052 0.202587 0  0.14375 0.3 0  0.209375 0.3 0  0.225966 0.278501 0  0.209375 0.1 0  0.225966 0.121499 0  0.211613 0.273759 0  0.211613 0.126241 0  0.143629 0.175809 0  0.1 0.175 0  0.133484 0.164832 0  0.144491 0.249539 0  0.1 0.225 0  0.133484 0.235168 0  0.3625 0.3 0  0.25691 0.253381 0  0.25691 0.146619 0  0.277205 0.188698 0  0.184724 0.275712 0  0.237372 0.268285 0  0.184724 0.124288 0  0.237372 0.131715 0  0.197578 0.273149 0  0.193656 0.286994 0  0.197578 0.126851 0  0.193656 0.113006 0  0.122953 0.187671 0  0.118362 0.153758 0  0.155372 0.258107 0  0.122953 0.212329 0  0.118362 0.246242 0  0.276394 0.27264 0  0.276394 0.12736 0  0.280965 0.170013 0  0.253125 0.3 0  0.14375 0.1 0  0.253125 0.1 0  0.269489 0.26014 0  0.269489 0.13986 0  0.303639 0.184297 0  0.165625 0.3 0  0.134742 0.273113 0  0.257831 0.274737 0  0.255279 0.128499 0  0.3625 0.1 0  0.165625 0.1 0  0.162031 0.132368 0  0.134955 0.126405 0  0.149334 0.125568 0  0.142936 0.139597 0  0.12695 0.140259 0  0.242514 0.285501 0  0.242514 0.114499 0  0.1 0.125 0  0.117483 0.12555 0  0.11154 0.139776 0  0.121875 0.1 0  0.109143 0.1125 0  0.126805 0.114 0  0.220313 0.29129 0  0.351562 0.287369 0  0.207222 0.2866 0  0.220312 0.10871 0  0.1375 0 0  0.20625 0 0  0.207222 0.1134 0  0.11722 0.17118 0  0.1 0.1625 0  0.0778409 0.16875 0  0.0862762 0.15625 0  0 0.15375 0  0 0.1025 0  0.11722 0.22882 0  0.1 0.2375 0  0 0.3075 0  0.0862762 0.23125 0  0.0598995 0.222547 0  0.0860223 0.2125 0  0.289584 0.181469 0  0.300267 0.16446 0  0.163832 0.269071 0  0.149597 0.273325 0  0.1 0.275 0  0.268498 0.285953 0  0.31875 0.3 0  0.294154 0.254672 0  0.296875 0.3 0  0.293558 0.271845 0  0.285095 0.286799 0  0.324298 0.264316 0  0.307866 0.263745 0  0.317093 0.234901 0  0.315485 0.281219 0  0.316547 0.250625 0  0.344693 0.243731 0  0.331592 0.251147 0  0.35129 0.270663 0  0.338689 0.263683 0  0.340625 0.3 0  0.249849 0.264383 0  0.265097 0.11422 0  0.284688 0.156136 0  0.242188 0.324017 0  0.0856613 0.2625 0  0.132812 0.0612217 0  0.264062 0.0612217 0  0.198437 0.07598340000000001 0  0.0860223 0.1375 0  0.0794526 0.191089 0  0.285228 0.140397 0  0.298655 0.148737 0  0.31875 0.1 0  0.327335 0.15374 0  0.296875 0.1 0  0.312289 0.155283 0  0.313348 0.135607 0  0.321802 0.173916 0  0.298433 0.134116 0  0.112124 0.2625 0  0.127526 0.259083 0  0.121875 0.3 0  0.0682687 0.241503 0  0.1 0.2875 0  0.117762 0.28125 0  0.107813 0.3 0  0.103906 0.313849 0  0.0778409 0.28125 0  0.1375 0.41 0  0.0862762 0.29375 0  0.08886860000000001 0.24375 0  0.307812 0.338778 0  0.307812 0.292227 0  0.33216 0.279164 0  0.387888 0.266414 0  0.264063 0.31948 0  0.110937 0.07598340000000001 0  0.242188 0.07598340000000001 0  0.319914 0.11839 0  0.340625 0.1 0  0.334448 0.133793 0  0.329687 0.108539 0  0.346259 0.118491 0  0.360334 0.173636 0  0.327539 0.205033 0  0.132812 0.288712 0  0.362436 0.278836 0  0.368105 0.259418 0  0.4125 0.41 0  0.329687 0.324017 0  0.329687 0.292306 0  0.285938 0.318952 0  0.417187 0.338778 0  0.324481 0.14148 0  0.351562 0.106771 0  0.40625 0.1 0  0.341028 0.168342 0  0.319221 0.190479 0  0.335292 0.184501 0  0.305563 0.20794 0  0.220313 0.31948 0  0.132812 0.332772 0  0.0865876 0.311259 0  0.0598995 0.302453 0  0.0906541 0.343255 0  0.353543 0.255837 0  0.36574 0.237633 0  0.405007 0.254279 0  0.275795 0.352123 0  0.4125 0 0  0.35493 0.137394 0  0.366563 0.120618 0  0.35917 0.205246 0  0.198438 0.318952 0  0.0626109 0.263892 0  0.40625 0.3 0  0.354809 0.155936 0  0.386512 0.146872 0  0.373101 0.159939 0  0.384375 0.1 0  0.343394 0.19929 0  0.350682 0.185683 0  0.368101 0.189748 0  0.344016 0.221511 0  0.391108 0.213329 0  0.376279 0.204783 0  0.398843 0.182768 0  0.375804 0.222746 0  0.390665 0.196958 0  0.394004 0.23518 0  0.359883 0.222828 0  0.419908 0.204359 0  0.404243 0.204783 0  0.412615 0.224526 0  0.20625 0.41 0  0.165625 0.325257 0  0.0347982 0.244954 0  0.379558 0.247154 0  0.34165 0.147603 0  0.372264 0.136992 0  0.388988 0.121989 0  0.373437 0.108554 0  0.351562 0.31948 0  0.391367 0.16527 0  0.399572 0.223324 0  0.452011 0.227371 0  0.40877 0.239392 0  0.431491 0.237337 0  0.421224 0.250459 0  0.449619 0.262098 0  0.418865 0.276779 0  0.437063 0.252274 0  0.415673 0.263227 0  0.430988 0.266772 0  0.402767 0.273419 0  0.452967 0.244883 0  0.428125 0.3 0  0.408502 0.286186 0  0.384375 0.3 0  0.392267 0.285807 0  0.465927 0.219339 0  0.43489 0.283846 0  0.376424 0.286289 0  0.625 0.3 0  0.473533 0.205186 0  0.461713 0.255517 0  0.5375 0.3 0  0.465725 0.235405 0  0.44631 0.201425 0  0.471875 0.3 0  0.494307 0.227729 0  0.459448 0.206736 0  0.462294 0.180792 0  0.478933 0.227536 0  0.486793 0.21381 0  0.486322 0.251373 0  0.50065 0.215318 0  0.54005 0.175389 0  0.474633 0.189893 0  0.512916 0.208697 0  0.49531 0.199967 0  0.475889 0.175275 0  0.625 0.1 0  0.459311 0.153933 0  0.513645 0.242704 0  0.392892 0.248539 0  0.374815 0.271913 0  0.365974 0.14871 0  0.395312 0.109184 0  0.417061 0.123981 0  0.483196 0.277003 0  0.381967 0.179632 0  0.429898 0.219374 0  0.433473 0.206165 0  0.43149 0.181038 0  0.444208 0.215487 0  0.472985 0.247309 0  0.49375 0.3 0  0.475579 0.262714 0  0.49916 0.274293 0  0.501175 0.184809 0  0.514164 0.225681 0  0.543648 0.214977 0  0.5341630000000001 0.23481 0  0.527396 0.216171 0  0.5375 0.1 0  0.534548 0.202315 0  0.561545 0.192513 0  0.5494289999999999 0.201221 0  0.570923 0.218346 0  0.412582 0.149833 0  0.489327 0.264745 0  0.502439 0.254775 0  0.462391 0.271166 0  0.496775 0.241732 0  0.5294410000000001 0.268606 0  0.482812 0.291099 0  0.46879 0.285038 0  0.452663 0.284065 0  0.51789 0.257882 0  0.53408 0.252026 0  0.560142 0.243543 0  0.545708 0.243474 0  0.547532 0.229019 0  0.55282 0.265323 0  0.398971 0.153424 0  0.400349 0.135684 0  0.410135 0.168145 0  0.428823 0.161323 0  0.415266 0.183779 0  0.329687 0.0810483 0  0.395312 0.0612217 0  0.373437 0.318952 0  0.439062 0.324017 0  0.561816 0.229354 0  0.585029 0.239287 0  0.431827 0.139854 0  0.446796 0.168929 0  0.351562 0.07598340000000001 0  0.395313 0.318944 0  0.54337 0.150762 0  0.460937 0.31948 0  0.418412 0.137529 0  0.428125 0.1 0  0.442783 0.152332 0  0.450742 0.134294 0  0.373437 0.0805201 0  0.384383 0.342558 0  0.482812 0.318952 0  0.429239 0.127457 0  0.444274 0.117405 0  0.426548 0.113815 0  0.49375 0.1 0  0.488954 0.113984 0  0.457973 0.121842 0  0.471621 0.137346 0  0.515625 0.325257 0  0.48125 0.41 0  0.417187 0.07598340000000001 0  0.496363 0.126778 0  0.479043 0.155715 0  0.439062 0.0805201 0  0.481795 0.126919 0  0.471875 0.1 0  0.489227 0.142159 0  0.515625 0.1 0  0.520062 0.147117 0  0.501244 0.161791 0  0.505431 0.112984 0  0.505344 0.14029 0  0.526563 0.119081 0  0.5181750000000001 0.131908 0  0.539868 0.136937 0  0.460937 0.108383 0  0.474242 0.114415 0  0.460937 0.0810483 0  0.487841 0.167168 0  0.526563 0.0612217 0  0.526563 0.106406 0  0.537619 0.112743 0  0.58125 0.1 0  0.559375 0.1 0  0.482812 0.08105569999999999 0  0.471883 0.0587655 0  0.570312 0.129396 0  0.548437 0.07598340000000001 0  0.504687 0.08105569999999999 0  0.49375 0.0470127 0  0.570312 0.112663 0  0.592798 0.12103 0  0.553986 0.12103 0  0.570312 0.0805201 0  0.48125 0 0  0.114787 0.2 0  0.160769 0.284765 0  0.175816 0.288361 0  0.162602 0.116048 0  0.154687 0.07598340000000001 0  0.176562 0.0805201 0  0.0598995 0.147547 0  0.307812 0.109924 0  0.291279 0.117157 0  0.278491 0.112989 0  0.285937 0.07598340000000001 0  0.307812 0.0805201 0  0.296928 0.196743 0  0.318141 0.218507 0  0.330208 0.227509 0  0.301397 0.225668 0  0.302706 0.241401 0  0.292574 0.21424 0  0.282762 0.230935 0  0.284351 0.244775 0  0.269553 0.23261 0  0.278572 0.217242 0  0.226924 0.342606 0  0.446928 0.185396 0  0.515625 0.3 0  0.504687 0.288879 0  0.515256 0.276534 0  0.529479 0.285328 0  0.58125 0.3 0  0.541969 0.272936 0  0.559375 0.3 0  0.556796 0.282529 0  0.543473 0.287206 0  0.581429 0.267774 0  0.566728 0.271171 0  0.570869 0.255585 0  0.577404 0.283865 0  0.603125 0.3 0  0.597531 0.28035 0  0.570312 0.338778 0  0.592188 0.292492 0  0.603513 0.256094 0  0.614063 0.286265 0  0.610329 0.27064 0  0.632708 0.251285 0  0.657223 0.261594 0  0.618789 0.257807 0  0.614188 0.22987 0  0.630935 0.265614 
[...]
<PointData  Vectors="v"> 
	<DataArray  type="Float64"  Name="v"  NumberOfComponents="3" format="ascii">
0.0 0.0 0.0 0.0 0.0 0.0 0.0 0.0 0.0 0.0 0.0 0.0 0.7974948431281185 -0.18913855932862306 0.0 0.8412173819940679 0.19832543014518852 0.0 1.014399835887045 -0.01675372758356995 0.0 0.9756820770284781 0.04144764442563502 0.0 0.0 0.0 0.0 0.0 0.0 0.0 0.0 0.0 0.0 0.0 0.0 0.0 0.0 0.0 0.0 0.0 0.0 0.0 0.0 0.0 0.0 0.0 0.0 0.0 0.0 0.0 0.0 0.0 0.0 0.0 0.0 0.0 0.0 0.0 0.0 0.0 0.0 0.0 0.0 0.0 0.0 0.0 0.0 0.0 0.0 0.0 0.0 0.0 0.0 0.0 0.0 0.0 0.0 0.0 0.0 0.0 0.0 0.0 0.0 0.0 0.0 0.0 0.0 0.0 0.0 0.0 0.0 0.0 0.0 0.0 0.0 0.0 0.0 0.0 0.0 0.0 0.0 0.0 0.0 0.0 0.0 0.0 0.0 0.0 0.0 0.0 0.0 0.0 0.0 0.0 0.0 0.0 0.0 0.0 0.0 0.0 0.0 0.0 0.0 0.7648452840569886 -0.002916536453588442 0.0 1.2130061200176783 0.1307374194599663 0.0 1.229813970156129 -0.11114099698388538 0.0 0.0 0.0 0.0 1.3026596750087 -0.076741306640329 0.0 1.3145628640372096 0.09041147504280682 0.0 0.0 0.0 0.0 0.0 0.0 0.0 1.0 0.0 0.0 0.0 0.0 0.0 0.0 0.0 0.0 0.0 0.0 0.0 0.8471144179499097 -0.2295407120823969 0.0 1.1547231139494525 -0.3022959029926666 0.0 0.8680285129627076 0.22409142116585787 0.0 1.1688353060861463 0.3083694927413118 0.0 0.4320973089456522 -0.006143943241768348 0.0 0.16660400988669535 0.02700452228505954 0.0 0.17049257375086418 -0.0236476421420003 0.0 -0.04639812874943317 -0.06636781432017035 0.0 -0.049758023189914624 0.06166731570987734 0.0 0.3382687904320353 -0.28389423733791447 0.0 0.873827936310875 -0.6733198271763181 0.0 0.651427363300698 -0.695187935320819 0.0 1.2436951898091526 -0.6032403831945354 0.0 0.3022076308934482 0.0026161404717372624 0.0 0.3338075182813495 0.2680770020562056 0.0 0.6524270090374814 0.6716010726356244 0.0 1.2208838953110084 0.6029042377821858 0.0 0.2917070837308518 0.0005012560629778581 0.0 1.2828315497054796 0.19268708881719862 0.0 -0.019989167522163804 0.05414036391078108 0.0 1.273027450355895 -0.17626069562466373 0.0 -0.017508813859974773 -0.05345194563127542 0.0 -0.035909816514986335 -0.028485269644730596 0.0 1.2243811720915456 -0.3987712293570652 0.0 1.1288384054897211 -0.7311581477286124 0.0 0.8708372632610157 0.7770681001824211 0.0 1.231697182312178 0.39871559120324784 0.0 0.91044689721415 0.16454185395788698 0.0 -0.03776739523851824 0.06833169277692926 0.0 0.9168441301392227 -0.16066660207942898 0.0 -0.038283262765271116 -0.0692556823707367 0.0 -0.030691147602567147 0.019889134130808034 0.0 1.0606258916725122 0.7277427413697732 0.0 0.44774457087024744 0.5310409334583546 0.0 0.5381036514498428 0.03177974144277745 0.0 0.07559236690162296 0.047453844634691614 0.0 0.5444260139664658 -0.03097268732566628 0.0 0.08145693478336369 -0.05209507732437854 0.0 -0.11093546448198478 0.0013367511700642194 0.0 0.9690862214405332 0.29758871379988333 0.0 1.2525957775841312 0.2452880677338872 0.0 1.2961800808198867 0.20315444622838982 0.0 1.2259772650320524 -0.24444448918276268 0.0 1.2922693493180486 -0.19745190817368694 0.0 1.3049947257876569 0.25365114204170525 0.0 1.307158606108346 -0.24694234095271825 0.0 0.45004952434022105 -0.5513879618497946 0.0 0.8059416173262522 -0.1397232950813955 0.0 0.6793860016633504 -0.4203041317064194 0.0 0.891168112692042 0.590929490954983 0.0 0.803161740906292 0.13976448515289652 0.0 0.6842775755522144 0.4173482545214867 0.0 1.2746749894191693 -0.04450283523219944 0.0 0.19328274649789615 0.03284400351425775 0.0 0.2066234769989585 -0.028234320648348795 0.0 -0.08395392898784995 -0.04015287573758043 0.0 1.3023925774168752 0.42754655195446845 0.0 0.8783878195029995 0.0671060165433648 0.0 1.2975073312835408 -0.43398443808367587 0.0 0.8935354467551541 -0.06103361214952983 0.0 1.3329729358983067 0.35937788819934846 0.0 1.2705158657128381 0.3451596527855796 0.0 1.3280795435037835 -0.3580436077142096 0.0 1.2612993436312028 -0.327305514058736 0.0 0.5884777939949901 -0.16245135095902574 0.0 0.8033583719077063 -0.3302267236138655 0.0 1.0313400830673212 0.5957592907134542 0.0 0.5963112314076362 0.1484052780583331 0.0 0.8189782075672952 0.32683935827158384 0.0 0.875847837883114 0.034598076163128044 0.0 0.9009948405439668 -0.02794126518763365 0.0 -0.03696095122415501 -0.06295143245512398 0.0 1.3093124733317394 0.13387986556240217 0.0 0.9342041049031187 -0.3055978890276504 0.0 1.2923347465082222 -0.12025644363386596 0.0 0.41124435944876303 0.026205580973518987 0.0 0.4360974602290395 -0.019672648810424583 0.0 -0.12338858190251174 -0.03544650945012032 0.0 1.0623947445536206 0.32253279038278276 0.0 0.9525362430367735 0.3792770950053507 0.0 1.0302545634041294 0.06985092497601662 0.0 0.9214121360018348 -0.04917298326303272 0.0 1.278363971390296 0.055230754829522506 0.0 1.0334543593061873 -0.3182871871666814 0.0 1.0983447167774327 -0.5583826216583184 0.0 0.9403281945046917 -0.38002189615270787 0.0 1.0122114396998398 -0.4250767708636875 0.0 0.9475025673273411 -0.538317668818706 0.0 0.8745653191614328 -0.4019289206855088 0.0 1.3103403911273461 0.15610272652398152 0.0 1.3015583758338838 -0.14778970172749548 0.0 0.8562514051702627 -0.2305453888411416 0.0 0.8851601841133964 -0.30303172884290625 0.0 0.8588375195729809 -0.29488925065041427 0.0 0.8536303109716588 -0.24576096316428442 0.0 0.8575850769658198 -0.24500961445789118 0.0 0.9022093155972889 -0.30910460807706613 0.0 1.3160044979326877 0.22717525108951356 0.0 1.168724565607365 -0.04027727466859631 0.0 1.3273782904077442 0.28785441582576965 0.0 1.3069943786137357 -0.21061759022139467 0.0 0.0 0.0 0.0 0.0 0.0 0.0 1.310315775444076 -0.27744358659098334 0.0 0.7198677502466125 -0.26807466114561096 0.0 0.8245914101471983 -0.20972636956936017 0.0 0.873733073997501 -0.11003318301201949 0.0 0.8655837113168026 -0.16214172398448803 0.0 0.9375 0.0 0.0 0.7500000000000001 0.0 0.0 0.7275698039973139 0.26246909673191837 0.0 0.8281777969605931 0.19624420785411326 0.0 0.7499999999999999 0.0 0.0 0.8725792350035732 0.12453794261145346 0.0 0.9301552779417769 0.04091944446495293 0.0 0.8509399100875983 0.043027166843736066 0.0 -0.09285468938668998 -0.046656562335652074 0.0 0.012111600766421064 -0.045715694114029815 0.0 1.1382673108578323 0.5370609867467573 0.0 1.032998477186628 0.45834076984002675 0.0 0.8839034707019171 0.23775713775242152 0.0 1.251021329789129 0.0845918564793792 0.0 1.3002408308897906 0.014414605876263926 0.0 0.2894446280833518 0.016755684819517256 0.0 1.3147718109375175 0.049268086328304254 0.0 0.8220931642113375 0.012984297109352606 0.0 1.2310227848233202 0.053448317718909455 0.0 0.585621418759732 -0.015820387782250218 0.0 0.5519118551418709 -0.0003035661757328352 0.0 -0.0042988165320477665 0.021921291324304613 0.0 1.0745387958785986 -0.0015232177748486567 0.0 0.23183092167209093 0.00853766600348003 0.0 0.14000600926462922 -0.002844868993854067 0.0 0.2621492150396505 -0.0016963087510214452 0.0 0.7865447337080749 -0.04151022365429233 0.0 0.579952639455929 -0.02541863428499437 0.0 1.2934651922764107 -0.01945826574732326 0.0 0.6075489983278486 0.028848624971937402 0.0 1.2615568800037356 -0.08631554078786692 0.0 0.08876116262783526 -0.04635493140220135 0.0 1.1512889764179222 0.1148758699278044 0.0 0.8853449976377263 0.17426066987872296 0.0 0.6961392306590036 -0.1562834341298672 0.0 1.0466753301921279 -0.05804311184113902 0.0 1.018170617990478 -0.18449376301931372 0.0 0.866515460177163 -0.17933546519437613 0.0 0.8778913284976272 -0.02643349288518773 0.0 0.43066329900694367 -0.017482951344520575 0.0 0.24017626538937714 -0.024448487776940597 0.0 1.2946310439118154 0.0006409672812227147 0.0 0.1927852579964021 -0.01590671067304993 0.0 1.3046441635441415 -0.03689718947944706 0.0 0.14361410937644142 -0.0279141382204384 0.0 0.6087267515447818 0.009656397524243736 0.0 -0.07015424280388183 -0.03430788576735667 0.0 0.64020241101853 -0.0017185197368480983 0.0 0.8844012018361948 0.28974356454811984 0.0 0.8879043210824183 0.40354825983320053 0.0 0.8865175473936646 0.2565439460052251 0.0 0.9140835974501543 0.10662160958442186 0.0 0.86717605344063 0.21432307600196784 0.0 0.9092234911680295 0.2929435842901672 0.0 0.8583596852037735 0.2226829786446442 0.0 0.801563340345602 0.17314083255276316 0.0 0.8682812351649227 0.155601520338405 0.0 0.0 0.0 0.0 0.8422799548010685 0.16931069687754632 0.0 0.8737900235301084 0.16684637461748156 0.0 1.1187051168610505 0.013485710373779434 0.0 1.2676914994951685 0.0215595545935503 0.0 1.0112199863978526 -0.022481653591975716 0.0 0.7136493675628537 -0.06416095307189186 0.0 1.213867839831342 0.08891634478808275 0.0 0.7162156398035245 -0.16480483684528455 0.0 1.1248129797568889 -0.11134011209933817 0.0 1.1021098136362695 0.0107849864281998 0.0 1.2901845463687727 0.030489247262321714 0.0 0.689771638024962 0.027725074161613714 0.0 1.2530067422188225 0.020001686309070947 0.0 1.0954275403272162 0.04360361341407165 0.0 -0.06000169491441793 -0.015408951896982827 0.0 -0.19432226957630488 -0.0037853227141468743 0.0 0.950356053995792 0.326038178366574 0.0 1.002161093824314 -0.055688213536593284 0.0 0.5064666507109735 -0.04066768503489589 0.0 0.0 0.0 0.0 1.220956612177414 -0.0031871608890856797 0.0 1.2513231283224364 -0.013872634075112687 0.0 1.2336516733021732 0.05964469761144939 0.0 1.107396427637418 -0.069143543610498 0.0 0.4574219353220899 0.0029294866198204344 0.0 1.253190302668303 0.04848275939327645 0.0 1.2518982860864079 0.1008244285422965 0.0 -0.0071269226830003776 -0.023070063504252555 0.0 -0.1672936060462967 -0.02288230191537711 0.0 -0.15502268913388811 -0.025292151555566827 0.0 -0.15599854645824907 0.006443155885377151 0.0 1.1522386629972083 0.16480414559325807 0.0 0.7731063835055795 0.1829666627837476 0.0 0.7776980120543106 0.14648436844818424 0.0 0.7859114963941937 0.10228850883642748 0.0 0.6179444186717298 0.10393873982924236 0.0 0.39895674383642366 -0.02516369832004031 0.0 0.06229197147525373 -0.009754297518467302 0.0 0.4465306655238092 -0.05365886793539342 0.0 0.9907137144035182 0.04263762425331472 0.0 0.0 0.0 0.0 0.6229985104943888 0.03835848670862448 0.0 1.0544754049226206 0.06724586899876832 0.0 -0.22514779138659566 -0.007251122518090965 0.0 1.079991128549997 0.22086498161694373 0.0 0.9013558603019391 0.10848369613483351 0.0 1.2550052502820723 -0.08428934291783657 0.0 0.1982819318109179 0.0005652640248896526 0.0 0.4515047106363896 0.048337731514194134 0.0 0.15616298143899365 0.008130013523014805 0.0 1.26912241210474 0.08075232490180216 0.0 -0.21467989905516685 -0.01153231944299786 0.0 -0.1702517511638678 -0.020362460964727404 0.0 -0.20125648282076877 -0.014013582431799692 0.0 -0.1329970165896584 0.005198795261193211 0.0 -0.20163640749397935 -0.005440935786414697 0.0 -0.23450201735046716 -0.006864559368878854 0.0 -0.13940265202669117 0.002461020453455368 0.0 -0.12486110920090449 -0.004963027319927387 0.0 -0.23425113591903093 -0.005907097429873942 0.0 0.05253665998220648 -0.018192068109532177 0.0 -0.12480921318430802 1.2754184330936977e-05 0.0 -0.2324400194329728 0.001950441716721289 0.0 -0.23717723635578095 -0.002500463520476395 0.0 -0.08339820243118815 -0.01215385999480885 0.0 0.0 0.0 0.0 0.9374789702656247 0.22850018603276148 0.0 0.951730069641744 0.038565352031730164 0.0 0.2490580659042748 -0.028421815387728925 0.0 0.34208683139004736 0.005502233647295472 0.0 0.6670999829259823 0.055311164384393124 0.0 1.0424501284328598 0.08937195496173375 0.0 1.2318170995439073 0.07520342906761943 0.0 1.246761969581173 -0.024591376669811885 0.0 0.09350985277152021 0.015371922039148325 0.0 -0.10786361327070035 -0.009424972599949394 0.0 0.010423598234492997 -0.01939693304440697 0.0 0.14519399367292082 -0.029279529831280196 0.0 0.1450610267233679 -0.0328224502748516 0.0 0.3918114184627776 -0.05396965270443305 0.0 0.7112702667180205 -0.09097098207035222 0.0 0.9842898743522754 -0.09370234864296956 0.0 0.46496196995298456 -0.06467253101454562 0.0 0.677523916939704 -0.07515326165454216 0.0 0.7850401595627909 -0.08906641299406881 0.0 0.9008773928364713 -0.0818826794140591 0.0 0.3385701706479432 -0.054779057114303975 0.0 1.2422108598861081 -0.09865920149318672 0.0 1.1386562295828238 -0.09085350104471267 0.0 1.2667056938073413 -0.06532062590730763 0.0 1.1353629857087144 -0.07865278852047349 0.0 -0.07823362077730553 -0.005388077616807261 0.0 1.112887834212312 -0.10679260151337855 0.0 1.145514476484061 -0.06763872431781753 0.0 1.1060159555289135 -0.11564024496991485 0.0 -0.17346116106813358 0.018830398492122688 0.0 0.589153009128269 -0.08191675391015792 0.0 1.1771008385875996 -0.13791484368274737 0.0 0.17723023668558313 -0.03780994222311665 0.0 -0.21328698849746094 0.014104140233203423 0.0 1.2179069705180807 -0.12103502366734306 0.0 0.10573488344142966 -0.02786669065916438 0.0 -0.19067941917556994 0.012801875312348492 0.0 -0.03607087526871139 0.05240958997257158 0.0 0.06588802727562373 -0.02350707868370373 0.0 -0.09833420181503108 0.00452535476668895 0.0 0.5564760400154026 -0.08398466725368597 0.0 -0.053622974398130636 4.4999413693075124e-05 0.0 0.1969076727264279 0.0796846475072307 0.0 -0.12174728069240136 0.04350148288648883 0.0 -0.08152362114715941 0.013718058885423082 0.0 -0.13921328715702316 0.032270733389426556 0.0 0.0736173701688838 0.0707488297044194 0.0 1.0675377733602385 0.08621628821905093 0.0 0.45946467008774206 0.10232225474114062 0.0 0.44275934085240654 -0.07426154558230706 0.0 0.29933765596071665 -0.03763339102729705 0.0 0.8358975947364987 -0.05991363210413512 0.0 0.36675660951341216 0.024097493304231176 0.0 1.2175144359524324 0.09964731917047093 0.0 1.0243841876741253 0.1181620520667304 0.0 1.0403691553821908 -0.12569078131905279 0.0 -0.11584083508491738 -0.005982990344262504 0.0 -0.12823416264655518 -0.007024145806238004 0.0 -0.2193274836058042 0.005073658988922477 0.0 -0.086227832532538 0.029006622154709623 0.0 -0.15159202192405682 -0.0014047978942148855 0.0 0.43659506333451126 -0.06830315045602 0.0 1.2055555986122237 -0.12735099645184197 0.0 0.7741803371075188 -0.10302411668742933 0.0 1.0161445929704502 -0.13005572764563536 0.0 -0.02033562179655247 0.061504864822417356 0.0 0.12252556191865226 -0.02927960015274766 0.0 0.05132894093593873 -0.012018459561963546 0.0 0.34240229879256695 -0.06300213596307848 0.0 0.0214475050871352 -0.008384092412155873 0.0 1.1297227241867016 0.12700651722534048 0.0 -0.054944155101280076 0.023728149156796313 0.0 0.03354783283851545 0.036960997649719635 0.0 -0.02014483564777129 0.021270055898437796 0.0 0.16944433737797382 -0.03453154471866642 0.0 0.4454918558950521 0.06783522258067132 0.0 0.8395860087148377 -0.11319862816535871 0.0 0.6649871837095456 -0.09935856435005148 0.0 0.9227208045685128 -0.11090450027646047 0.0 0.3784852481227255 -0.06425410412373345 0.0 0.9642197617917874 -0.13449844284582685 0.0 1.1824548628924185 -0.12898708708477374 0.0 1.1341447495063501 -0.12372342048080293 0.0 1.1189814646263767 -0.11516341856802867 0.0 0.760778664670227 -0.11312239850672284 0.0 0.6813927105885524 -0.10711604777206797 0.0 0.5804497532890776 -0.09832397278728564 0.0 0.5420441395737238 -0.09172405149401608 0.0 0.27229278342846325 -0.05285261861441625 0.0 0.9441163584799082 -0.1363486548516099 0.0 0.33474805718827527 0.045331660449677805 0.0 0.7539130628526696 0.08563437630991297 0.0 0.07484052263130819 0.028423954712665084 0.0 0.23739818865936335 0.06002038092384156 0.0 -0.13689931758799287 0.012907106573048662 0.0 1.2306589968741979 0.013900908492582137 0.0 1.0799173603312777 0.06846706789127226 0.0 1.2451338713801767 -0.0472408701693465 0.0 1.1873016871971056 -0.09139454196841562 0.0 0.3187075275998037 -0.06100606109307249 0.0 0.5607392714769334 -0.09666118086698033 0.0 0.7155509554363272 0.10799605996382129 0.0 0.12816469430191993 0.060699136691164494 0.0 1.197528975276879 0.03791159926517371 0.0 1.2338110279345502 -0.06546901247972688 0.0 0.6706191266586401 0.12160941222688709 0.0 1.1927011717418605 -0.10471702432918167 0.0 0.7418033085812377 0.09966402540504005 0.0 1.2344344799380522 0.11932044633968929 0.0 0.45776161765803564 0.09253847910157444 0.0 0.864745331156729 0.1332250885149048 0.0 1.2196618006790945 0.06027390709689875 0.0 1.098576235387433 -0.05020642994064923 0.0 1.1782016129079624 -0.1138486634807234 0.0 0.9710538718267603 0.12339280777913 0.0 1.1280590178278291 0.14007661693223966 0.0 1.1709459257415546 0.1285576123043274 0.0 1.1713669681536625 0.13846502661652915 0.0 1.143654842565188 0.15096182273320452 0.0 1.07785958648439 0.14623321562061023 0.0 0.8314866850105452 0.14017803101373444 0.0 1.1095645562928647 -0.11403442559189539 0.0 0.0 0.0 0.0 1.1653045115656324 0.09356611983165777 0.0 1.0218946942879832 0.15190819960358234 0.0 0.4616624771909572 0.11128101683820821 0.0 1.1721990561429845 0.11040698354126904 0.0 1.01648921056048 0.1521020049029727 0.0 1.1930878160815652 0.13622171391921278 0.0 0.7619511483165925 0.13897308636520136 0.0 1.14877067908386 0.1337930336898584 0.0 0.7083277331185437 0.13278916681021133 0.0 0.3800419569498138 0.10752166902117773 0.0 1.1371004282469488 0.14812875614755994 0.0 0.8179288194334815 0.1433580364766473 0.0 1.0934315601681135 0.14451969652342486 0.0 0.9617000739564829 0.1477582543235429 0.0 0.9005076530375278 0.13715526684439028 0.0 1.1893857986532494 0.14336243319046682 0.0 1.1469411462984027 0.14948156457178385 0.0 1.1497101732063173 0.11953039514818423 0.0 0.2454117223747954 0.09208653333381801 0.0 0.9240197031236247 0.08692740799102293 0.0 1.1400312418604106 0.1372733952707742 0.0 1.1184651823607468 0.13640936278319152 0.0 1.0936337215819463 0.10627537574566635 0.0 1.1092034925048253 0.1177891039434408 0.0 1.1211902679455614 0.1197538252509905 0.0 0.9880282878237109 0.08702997332206625 0.0 1.0032893905240945 0.12285521013089502 0.0 1.0160062183696488 0.09777430451689534 0.0 1.1004977631890918 0.11644374745336504 0.0 0.8109056104116413 0.07173573682764957 0.0 1.100758012904371 0.1194028842835936 0.0 1.0638266097703744 0.10962306438592755 0.0 1.0724144157498126 0.1318804769518662 0.0 1.0226277120579321 0.09409660580381768 0.0 0.0 0.0 0.0 0.6487125645505016 -0.007429429816242397 0.0 1.0910464180592148 0.4093060770688147 0.0 1.1831187512412331 0.38591604355498255 0.0 1.0981543122352562 -0.40308062072671097 0.0 0.8596945782338116 -0.207321870739397 0.0 0.971355726382231 -0.22526547023058952 0.0 0.8937271357380971 -0.08356194236527568 0.0 1.2597441404090495 -0.014614664916319858 0.0 1.1644227774298475 -0.027931500916242472 0.0 1.2489168028688462 -0.057494173138068046 0.0 1.1793759711825151 -0.03835562749876391 0.0 1.2212689174137537 -0.012007375307432686 0.0 -0.14214796585815442 -0.014579148426307212 0.0 -0.13597259220502617 0.01596011873327518 0.0 -0.07761877537102832 0.013392220089696667 0.0 -0.07991141317185758 0.0330431209175496 0.0 0.0639234655817121 0.03135830551219817 0.0 -0.11688249613383812 0.024825525350600557 0.0 -0.040251216068264324 0.05372996111420318 0.0 0.08852381196980241 0.04175267315813208 0.0 -0.03375758334185189 0.06742276983258345 0.0 -0.08246325164834972 0.04278355637772995 0.0 0.987874098123452 0.11858644662392182 0.0 -0.1178517716375274 0.03430389611774739 0.0 1.192058741364043 -0.13373050817288926 0.0 1.1654188262085214 -0.1374242434546566 0.0 1.0578310136806568 -0.13692227134356882 0.0 1.1415920504694261 -0.14294453998307236 0.0 1.1433513628732013 -0.1329700800841311 0.0 1.0330725334056248 -0.14151676279344616 0.0 1.1605930646958225 -0.13663908512372916 0.0 1.1221710705553691 -0.14571292064647057 0.0 1.1487746108870351 -0.14403700346234175 0.0 1.0007827069879933 -0.1406484988829131 0.0 1.0290535528265279 -0.14328144767029877 0.0 0.8186825556940819 -0.12604488887175713 0.0 1.1253197298759319 -0.14455381803331652 0.0 1.1243217581208436 -0.12646394042205417 0.0 1.103648727526862 -0.14006193130579092 0.0 0.9540945576039764 -0.09579245421074493 0.0 1.1384213450453327 -0.1360035014319324 0.0 0.8719555944672394 -0.12805311729367297 0.0 1.11743974449055 -0.13073692426549471 0.0 1.0402772755493346 -0.13613334813614364 0.0 0.836908186576653 -0.1166043918335152 0.0 0.9694809312072807 -0.11070024818345449 0.0 0.9097211154404194 -0.1265557516152619 0.0 0.4613313074374628 -0.08222108096125835 0.0 1.000805090524786 -0.12603608123404264 0.0 0.6976692423444508 -0.10865921981964985 0.0 1.072047