<?xml version="1.0"?>
<VTKFile type="UnstructuredGrid"  version="0.1"  >
<UnstructuredGrid>
<Piece  NumberOfPoints="1289" NumberOfCells="2413">
<Points>
<DataArray  type="Float64"  NumberOfComponents="3"  format="ascii">0 0 0  0 0.41 0  2.2 0.41 0  2.2 0 0  0.1 0.1 0  0.1 0.3 0  0.8 0.3 0  0.8 0.1 0  0.25 0.2 0  0.248976 0.210065 0  0.245948 0.219718 0  0.241038 0.228563 0  0.234448 0.23624 0  0.226448 0.242432 0  0.217365 0.246888 0  0.207571 0.249423 0  0.197468 0.249936 0  0.187467 0.248404 0  0.17798 0.24489 0  0.169395 0.239539 0  0.162062 0.232569 0  0.156283 0.224265 0  0.152293 0.214968 0  0.150257 0.205058 0  0.150257 0.194942 0  0.152293 0.185032 0  0.156283 0.175735 0  0.162062 0.167431 0  0.169395 0.160461 0  0.17798 0.15511 0  0.187467 0.151596 0  0.197468 0.150064 0  0.207571 0.150577 0  0.217365 0.153112 0  0.226448 0.157568 0  0.234448 0.16376 0  0.241038 0.171437 0  0.245948 0.180282 0  0.248976 0.189935 0  1.1 0 0  1.1 0.41 0  0.1 0.2 0  0.45 0.1 0  0.45 0.3 0  0.55 0 0  0.275 0.1 0  0.275 0.3 0  0.275 0 0  0.55 0.41 0  0 0.205 0  0.825 0 0  0.825 0.41 0  0.275 0.41 0  0.1 0.15 0  0.1875 0.1 0  0.1 0.25 0  0.1875 0.3 0  0.132322 0.2 0  0.241426 0.253518 0  0.241426 0.146482 0  0.264574 0.17974 0  0.264574 0.22026 0  0.138434 0.187348 0  0.153372 0.150948 0  0.148413 0.164094 0  0.176495 0.136535 0  0.22768 0.143571 0  0.138434 0.212652 0  0.148413 0.235906 0  0.176495 0.263465 0  0.22768 0.256429 0  0.23125 0.3 0  0.24769 0.24094 0  0.23125 0.1 0  0.24769 0.15906 0  0.26253 0.193641 0  0.190482 0.137872 0  0.166753 0.146661 0  0.157737 0.244461 0  0.190482 0.262128 0  0.203107 0.261264 0  0.253635 0.22977 0  0.203107 0.138736 0  0.253635 0.17023 0  0.261028 0.206206 0  0.167707 0.251809 0  0.143629 0.224191 0  0.215302 0.2591 0  0.270465 0.245894 0  0.215302 0.1409 0  0.270465 0.154106 0  0.284052 0.202587 0  0.14375 0.3 0  0.209375 0.3 0  0.225966 0.278501 0  0.209375 0.1 0  0.225966 0.121499 0  0.211613 0.273759 0  0.211613 0.126241 0  0.143629 0.175809 0  0.1 0.175 0  0.133484 0.164832 0  0.144491 0.249539 0  0.1 0.225 0  0.133484 0.235168 0  0.3625 0.3 0  0.25691 0.253381 0  0.25691 0.146619 0  0.277205 0.188698 0  0.184724 0.275712 0  0.237372 0.268285 0  0.184724 0.124288 0  0.237372 0.131715 0  0.197578 0.273149 0  0.193656 0.286994 0  0.197578 0.126851 0  0.193656 0.113006 0  0.122953 0.187671 0  0.118362 0.153758 0  0.155372 0.258107 0  0.122953 0.212329 0  0.118362 0.246242 0  0.276394 0.27264 0  0.276394 0.12736 0  0.280965 0.170013 0  0.253125 0.3 0  0.14375 0.1 0  0.253125 0.1 0  0.269489 0.26014 0  0.269489 0.13986 0  0.303639 0.184297 0  0.165625 0.3 0  0.134742 0.273113 0  0.257831 0.274737 0  0.255279 0.128499 0  0.3625 0.1 0  0.165625 0.1 0  0.162031 0.132368 0  0.134955 0.126405 0  0.149334 0.125568 0  0.142936 0.139597 0  0.12695 0.140259 0  0.242514 0.285501 0  0.242514 0.114499 0  0.1 0.125 0  0.117483 0.12555 0  0.11154 0.139776 0  0.121875 0.1 0  0.109143 0.1125 0  0.126805 0.114 0  0.220313 0.29129 0  0.351562 0.287369 0  0.207222 0.2866 0  0.220312 0.10871 0  0.1375 0 0  0.20625 0 0  0.207222 0.1134 0  0.11722 0.17118 0  0.1 0.1625 0  0.0778409 0.16875 0  0.0862762 0.15625 0  0 0.15375 0  0 0.1025 0  0.11722 0.22882 0  0.1 0.2375 0  0 0.3075 0  0.0862762 0.23125 0  0.0598995 0.222547 0  0.0860223 0.2125 0  0.289584 0.181469 0  0.300267 0.16446 0  0.163832 0.269071 0  0.149597 0.273325 0  0.1 0.275 0  0.268498 0.285953 0  0.31875 0.3 0  0.294154 0.254672 0  0.296875 0.3 0  0.293558 0.271845 0  0.285095 0.286799 0  0.324298 0.264316 0  0.307866 0.263745 0  0.317093 0.234901 0  0.315485 0.281219 0  0.316547 0.250625 0  0.344693 0.243731 0  0.331592 0.251147 0  0.35129 0.270663 0  0.338689 0.263683 0  0.340625 0.3 0  0.249849 0.264383 0  0.265097 0.11422 0  0.284688 0.156136 0  0.242188 0.324017 0  0.0856613 0.2625 0  0.132812 0.0612217 0  0.264062 0.0612217 0  0.198437 0.07598340000000001 0  0.0860223 0.1375 0  0.0794526 0.191089 0  0.285228 0.140397 0  0.298655 0.148737 0  0.31875 0.1 0  0.327335 0.15374 0  0.296875 0.1 0  0.312289 0.155283 0  0.313348 0.135607 0  0.321802 0.173916 0  0.298433 0.134116 0  0.112124 0.2625 0  0.127526 0.259083 0  0.121875 0.3 0  0.0682687 0.241503 0  0.1 0.2875 0  0.117762 0.28125 0  0.107813 0.3 0  0.103906 0.313849 0  0.0778409 0.28125 0  0.1375 0.41 0  0.0862762 0.29375 0  0.08886860000000001 0.24375 0  0.307812 0.338778 0  0.307812 0.292227 0  0.33216 0.279164 0  0.387888 0.266414 0  0.264063 0.31948 0  0.110937 0.07598340000000001 0  0.242188 0.07598340000000001 0  0.319914 0.11839 0  0.340625 0.1 0  0.334448 0.133793 0  0.329687 0.108539 0  0.346259 0.118491 0  0.360334 0.173636 0  0.327539 0.205033 0  0.132812 0.288712 0  0.362436 0.278836 0  0.368105 0.259418 0  0.4125 0.41 0  0.329687 0.324017 0  0.329687 0.292306 0  0.285938 0.318952 0  0.417187 0.338778 0  0.324481 0.14148 0  0.351562 0.106771 0  0.40625 0.1 0  0.341028 0.168342 0  0.319221 0.190479 0  0.335292 0.184501 0  0.305563 0.20794 0  0.220313 0.31948 0  0.132812 0.332772 0  0.0865876 0.311259 0  0.0598995 0.302453 0  0.0906541 0.343255 0  0.353543 0.255837 0  0.36574 0.237633 0  0.405007 0.254279 0  0.275795 0.352123 0  0.4125 0 0  0.35493 0.137394 0  0.366563 0.120618 0  0.35917 0.205246 0  0.198438 0.318952 0  0.0626109 0.263892 0  0.40625 0.3 0  0.354809 0.155936 0  0.386512 0.146872 0  0.373101 0.159939 0  0.384375 0.1 0  0.343394 0.19929 0  0.350682 0.185683 0  0.368101 0.189748 0  0.344016 0.221511 0  0.391108 0.213329 0  0.376279 0.204783 0  0.398843 0.182768 0  0.375804 0.222746 0  0.390665 0.196958 0  0.394004 0.23518 0  0.359883 0.222828 0  0.419908 0.204359 0  0.404243 0.204783 0  0.412615 0.224526 0  0.20625 0.41 0  0.165625 0.325257 0  0.0347982 0.244954 0  0.379558 0.247154 0  0.34165 0.147603 0  0.372264 0.136992 0  0.388988 0.121989 0  0.373437 0.108554 0  0.351562 0.31948 0  0.391367 0.16527 0  0.399572 0.223324 0  0.452011 0.227371 0  0.40877 0.239392 0  0.431491 0.237337 0  0.421224 0.250459 0  0.449619 0.262098 0  0.418865 0.276779 0  0.437063 0.252274 0  0.415673 0.263227 0  0.430988 0.266772 0  0.402767 0.273419 0  0.452967 0.244883 0  0.428125 0.3 0  0.408502 0.286186 0  0.384375 0.3 0  0.392267 0.285807 0  0.465927 0.219339 0  0.43489 0.283846 0  0.376424 0.286289 0  0.625 0.3 0  0.473533 0.205186 0  0.461713 0.255517 0  0.5375 0.3 0  0.465725 0.235405 0  0.44631 0.201425 0  0.471875 0.3 0  0.494307 0.227729 0  0.459448 0.206736 0  0.462294 0.180792 0  0.478933 0.227536 0  0.486793 0.21381 0  0.486322 0.251373 0  0.50065 0.215318 0  0.54005 0.175389 0  0.474633 0.189893 0  0.512916 0.208697 0  0.49531 0.199967 0  0.475889 0.175275 0  0.625 0.1 0  0.459311 0.153933 0  0.513645 0.242704 0  0.392892 0.248539 0  0.374815 0.271913 0  0.365974 0.14871 0  0.395312 0.109184 0  0.417061 0.123981 0  0.483196 0.277003 0  0.381967 0.179632 0  0.429898 0.219374 0  0.433473 0.206165 0  0.43149 0.181038 0  0.444208 0.215487 0  0.472985 0.247309 0  0.49375 0.3 0  0.475579 0.262714 0  0.49916 0.274293 0  0.501175 0.184809 0  0.514164 0.225681 0  0.543648 0.214977 0  0.5341630000000001 0.23481 0  0.527396 0.216171 0  0.5375 0.1 0  0.534548 0.202315 0  0.561545 0.192513 0  0.5494289999999999 0.201221 0  0.570923 0.218346 0  0.412582 0.149833 0  0.489327 0.264745 0  0.502439 0.254775 0  0.462391 0.271166 0  0.496775 0.241732 0  0.5294410000000001 0.268606 0  0.482812 0.291099 0  0.46879 0.285038 0  0.452663 0.284065 0  0.51789 0.257882 0  0.53408 0.252026 0  0.560142 0.243543 0  0.545708 0.243474 0  0.547532 0.229019 0  0.55282 0.265323 0  0.398971 0.153424 0  0.400349 0.135684 0  0.410135 0.168145 0  0.428823 0.161323 0  0.415266 0.183779 0  0.329687 0.0810483 0  0.395312 0.0612217 0  0.373437 0.318952 0  0.439062 0.324017 0  0.561816 0.229354 0  0.585029 0.239287 0  0.431827 0.139854 0  0.446796 0.168929 0  0.351562 0.07598340000000001 0  0.395313 0.318944 0  0.54337 0.150762 0  0.460937 0.31948 0  0.418412 0.137529 0  0.428125 0.1 0  0.442783 0.152332 0  0.450742 0.134294 0  0.373437 0.0805201 0  0.384383 0.342558 0  0.482812 0.318952 0  0.429239 0.127457 0  0.444274 0.117405 0  0.426548 0.113815 0  0.49375 0.1 0  0.488954 0.113984 0  0.457973 0.121842 0  0.471621 0.137346 0  0.515625 0.325257 0  0.48125 0.41 0  0.417187 0.07598340000000001 0  0.496363 0.126778 0  0.479043 0.155715 0  0.439062 0.0805201 0  0.481795 0.126919 0  0.471875 0.1 0  0.489227 0.142159 0  0.515625 0.1 0  0.520062 0.147117 0  0.501244 0.161791 0  0.505431 0.112984 0  0.505344 0.14029 0  0.526563 0.119081 0  0.5181750000000001 0.131908 0  0.539868 0.136937 0  0.460937 0.108383 0  0.474242 0.114415 0  0.460937 0.0810483 0  0.487841 0.167168 0  0.526563 0.0612217 0  0.526563 0.106406 0  0.537619 0.112743 0  0.58125 0.1 0  0.559375 0.1 0  0.482812 0.08105569999999999 0  0.471883 0.0587655 0  0.570312 0.129396 0  0.548437 0.07598340000000001 0  0.504687 0.08105569999999999 0  0.49375 0.0470127 0  0.570312 0.112663 0  0.592798 0.12103 0  0.553986 0.12103 0  0.570312 0.0805201 0  0.48125 0 0  0.114787 0.2 0  0.160769 0.284765 0  0.175816 0.288361 0  0.162602 0.116048 0  0.154687 0.07598340000000001 0  0.176562 0.0805201 0  0.0598995 0.147547 0  0.307812 0.109924 0  0.291279 0.117157 0  0.278491 0.112989 0  0.285937 0.07598340000000001 0  0.307812 0.0805201 0  0.296928 0.196743 0  0.318141 0.218507 0  0.330208 0.227509 0  0.301397 0.225668 0  0.302706 0.241401 0  0.292574 0.21424 0  0.282762 0.230935 0  0.284351 0.244775 0  0.269553 0.23261 0  0.278572 0.217242 0  0.226924 0.342606 0  0.446928 0.185396 0  0.515625 0.3 0  0.504687 0.288879 0  0.515256 0.276534 0  0.529479 0.285328 0  0.58125 0.3 0  0.541969 0.272936 0  0.559375 0.3 0  0.556796 0.282529 0  0.543473 0.287206 0  0.581429 0.267774 0  0.566728 0.271171 0  0.570869 0.255585 0  0.577404 0.283865 0  0.603125 0.3 0  0.597531 0.28035 0  0.570312 0.338778 0  0.592188 0.292492 0  0.603513 0.256094 0  0.614063 0.286265 0  0.610329 0.27064 0  0.632708 0.251285 0  0.657223 0.261594 0  0.618789 0.257807 0  0.614188 0.22987 0  0.630935 0.265614 
[...]
<PointData  Vectors="v"> 
	<DataArray  type="Float64"  Name="v"  NumberOfComponents="3" format="ascii">
0.0 0.0 0.0 0.0 0.0 0.0 0.0 0.0 0.0 0.0 0.0 0.0 0.7977013392882937 -0.18927019703889322 0.0 0.841005025968411 0.1981828862716968 0.0 1.0470053387699283 -0.04594176551444801 0.0 0.9462327468180577 0.011896195449126354 0.0 0.0 0.0 0.0 0.0 0.0 0.0 0.0 0.0 0.0 0.0 0.0 0.0 0.0 0.0 0.0 0.0 0.0 0.0 0.0 0.0 0.0 0.0 0.0 0.0 0.0 0.0 0.0 0.0 0.0 0.0 0.0 0.0 0.0 0.0 0.0 0.0 0.0 0.0 0.0 0.0 0.0 0.0 0.0 0.0 0.0 0.0 0.0 0.0 0.0 0.0 0.0 0.0 0.0 0.0 0.0 0.0 0.0 0.0 0.0 0.0 0.0 0.0 0.0 0.0 0.0 0.0 0.0 0.0 0.0 0.0 0.0 0.0 0.0 0.0 0.0 0.0 0.0 0.0 0.0 0.0 0.0 0.0 0.0 0.0 0.0 0.0 0.0 0.0 0.0 0.0 0.0 0.0 0.0 0.0 0.0 0.0 0.0 0.0 0.0 0.7648509470436328 -0.003334145306611883 0.0 1.2022435531961153 0.11330240059518197 0.0 1.2420591366557932 -0.12942385587239977 0.0 0.0 0.0 0.0 1.3021915193717386 -0.0734699375343021 0.0 1.314678041770839 0.09359877979410441 0.0 0.0 0.0 0.0 0.0 0.0 0.0 1.0 0.0 0.0 0.0 0.0 0.0 0.0 0.0 0.0 0.0 0.0 0.0 0.8472977285104756 -0.22987127601095733 0.0 1.1552083853653856 -0.30140290667555886 0.0 0.8678382689541434 0.22376145997966776 0.0 1.168345555341786 0.3092354832577577 0.0 0.43210252680843264 -0.006461438908152553 0.0 0.16413426120457195 0.027171868774250214 0.0 0.17314194010861242 -0.023329045380001523 0.0 -0.04702132112293067 -0.06687450586048438 0.0 -0.04905823859032591 0.0611001743733192 0.0 0.33836024342608273 -0.2842308861368649 0.0 0.87425670423088 -0.6734187776311696 0.0 0.6517537410269404 -0.69550468999117 0.0 1.2446101994932757 -0.6030777522336982 0.0 0.3052254554638305 0.003334924605224161 0.0 0.3337177772249628 0.26773631413375043 0.0 0.6521101851645594 0.6713054689146372 0.0 1.2200127648573917 0.6030552891605194 0.0 0.2888630266171646 0.001147843732721733 0.0 1.282582357565941 0.19454780723180645 0.0 -0.020625109384058225 0.052903725063642874 0.0 1.273266379375953 -0.17433050253632118 0.0 -0.01676834727438684 -0.05462757955739539 0.0 -0.03623306324152672 -0.029642387195773747 0.0 1.226559172025563 -0.39886074022431633 0.0 1.1297455838751445 -0.7313862164292976 0.0 0.8702829255374216 0.7767402822044941 0.0 1.2295782527876722 0.39862562020418224 0.0 0.9074525938688021 0.1646468734225165 0.0 -0.03735551683034832 0.06635261185294192 0.0 0.9199412815611342 -0.16054453143438233 0.0 -0.038683945193502406 -0.07118472589311148 0.0 -0.030442450134631385 0.018441640619558417 0.0 1.0597591546505434 0.7274149567310868 0.0 0.44752246929082073 0.5306868236481613 0.0 0.5349651461569157 0.03218082975786435 0.0 0.07280993567919965 0.04783363885663595 0.0 0.5477243300995333 -0.030532154623588145 0.0 0.08439014537936262 -0.05182635913116853 0.0 -0.11076307783333189 0.005000609408418284 0.0 0.9687023416603534 0.297812431608412 0.0 1.2521216823184516 0.24667433398717478 0.0 1.294133498336364 0.20458220431740512 0.0 1.2263897270771784 -0.24304835604240485 0.0 1.2942946730157237 -0.19592706598263354 0.0 1.3029034512836875 0.25472187747411956 0.0 1.3092608080800867 -0.2458124441481957 0.0 0.45027859717235197 -0.5517547644390227 0.0 0.8060389322679595 -0.14012777242415514 0.0 0.6796240147097947 -0.42055165733468775 0.0 0.8907236327353341 0.590739044021798 0.0 0.8030616970159107 0.13935537403717385 0.0 0.6840214122862391 0.41706684429952817 0.0 1.2834286449880639 -0.04165199445287992 0.0 0.1894191609996633 0.03264151887630128 0.0 0.21081368336300868 -0.02814811894037439 0.0 -0.08466450696991717 -0.038148336343270445 0.0 1.3014070227297219 0.4282587788072358 0.0 0.8739304879872447 0.06801393615390004 0.0 1.2984692870523276 -0.43329019842618055 0.0 0.8980952130971586 -0.05997133712932003 0.0 1.331581689413186 0.36028663069635697 0.0 1.2697588803585855 0.34613964851166207 0.0 1.329493986463669 -0.357098150169333 0.0 1.2620533622318375 -0.3262775032377428 0.0 0.5885809929937205 -0.16280532186798535 0.0 0.8035849218001548 -0.3305082964384541 0.0 1.0307392792045356 0.5957396049403065 0.0 0.5962060739105263 0.1480480689886947 0.0 0.8187451555493814 0.3265489448660342 0.0 0.8690111161148154 0.03694524940489151 0.0 0.9078626366533468 -0.02535846501175766 0.0 -0.03735519591444354 -0.06065405675472947 0.0 1.3092397622097334 0.136331454842946 0.0 0.9345743288625481 -0.30538340756271093 0.0 1.2922686163073158 -0.11768757738461709 0.0 0.4051823560973336 0.027025599250114697 0.0 0.44269077200253115 -0.018469317646690974 0.0 -0.12518995298000346 -0.026927009397639506 0.0 1.061946417805884 0.32305110933654896 0.0 0.9521328074966526 0.379254182221956 0.0 1.0252464452823324 0.0714009203169853 0.0 0.9267267612921708 -0.047729169624765054 0.0 1.2692688392563574 0.058151922165351456 0.0 1.0338883583950953 -0.3177650259278569 0.0 1.0989948275020003 -0.5582460987154465 0.0 0.940739754320339 -0.38002178109380996 0.0 1.0127243173820906 -0.4249243838604638 0.0 0.9479560430686473 -0.538420623534646 0.0 0.8748918281901311 -0.40210645243832693 0.0 1.3087966704753793 0.15810766296323495 0.0 1.3030083746269723 -0.14565589161889722 0.0 0.8564667843382133 -0.23078126615169361 0.0 0.8854573994920146 -0.3031650178550143 0.0 0.8590922335556765 -0.29512593157939027 0.0 0.8539206899928041 -0.24574187561807598 0.0 0.8578462877780311 -0.2451317049846167 0.0 0.9025422588341884 -0.30910933356087805 0.0 1.315356150324843 0.22885520582880073 0.0 1.172017707496379 -0.03367240930362118 0.0 1.3265187037494472 0.2891797819735985 0.0 1.3076141938981138 -0.2088443644742347 0.0 0.0 0.0 0.0 0.0 0.0 0.0 1.3111327146988785 -0.2760495842490782 0.0 0.720012556657738 -0.26841825100584865 0.0 0.8247387907463452 -0.21009550159399917 0.0 0.8737929697840009 -0.11045585907438589 0.0 0.8657070297251841 -0.1625291761966521 0.0 0.9375 0.0 0.0 0.7500000000000001 0.0 0.0 0.7274243816859313 0.26211592183481985 0.0 0.8280280853876317 0.19586981814371343 0.0 0.7499999999999999 0.0 0.0 0.8724895868981476 0.12412032092015803 0.0 0.930119564412929 0.04051103732868926 0.0 0.8509005908884467 0.04258335345747281 0.0 -0.09415229693240248 -0.04206226177781883 0.0 0.011602382463030367 -0.03954058571783336 0.0 1.1375869073484017 0.5372525891108585 0.0 1.0324815359518458 0.45842251671910117 0.0 0.8836953989543653 0.23750642746660422 0.0 1.2483532486593196 0.08736054643529695 0.0 1.3026582879259887 0.019117207453788105 0.0 0.28349627702111174 0.02084977752772275 0.0 1.3156587438616836 0.053377169450602883 0.0 0.8140920990810906 0.016788419878196924 0.0 1.2279670330937045 0.057126671123720135 0.0 0.5787452408324274 -0.006734229937298937 0.0 0.5437708799824513 0.005892452117951544 0.0 -0.0016335167037182876 0.03333959064573161 0.0 1.069671120766899 0.004525340612038453 0.0 0.22918095207723613 0.017692997308860196 0.0 0.1448529579499763 0.014777958984147554 0.0 0.26140631218759774 0.010823997091658363 0.0 0.7849980871608093 -0.030611487790610483 0.0 0.5757420697950739 -0.013795928263068169 0.0 1.298383318411389 -0.014920999540438963 0.0 0.6024817553702979 0.029610726711408977 0.0 1.2639730838213454 -0.08356146879744841 0.0 0.09142813604528736 -0.04387653321753867 0.0 1.1518315256574598 0.11672385063726373 0.0 0.8851943590671324 0.1739276701537377 0.0 0.6963849477688051 -0.15613498834944545 0.0 1.0450874507638943 -0.056221144833677114 0.0 1.0182203853929996 -0.1835481861212751 0.0 0.8666665565472897 -0.1796505416415274 0.0 0.8779042983399914 -0.026876984125946926 0.0 0.4382420858191975 -0.014879044964115722 0.0 0.24511639718360503 -0.019500572051064095 0.0 1.2917055177962795 0.005571833040501751 0.0 0.19308143180392284 -0.003600632809125017 0.0 1.3036183345719352 -0.032691289966019624 0.0 0.14492689227337963 -0.019087882137501823 0.0 0.617462545827073 0.016659104358903137 0.0 -0.07375398574302433 -0.02065414658027811 0.0 0.6492035870693418 0.003151637539877601 0.0 0.8841293800343547 0.28951741849322066 0.0 0.8875761902520891 0.40335477636603195 0.0 0.8862409505581557 0.25655225588612424 0.0 0.9140077600635702 0.10621736813352858 0.0 0.8669697924380153 0.21415218925563323 0.0 0.9089245562672792 0.29283013728220453 0.0 0.8581168368008354 0.22258268784527552 0.0 0.8013453250013028 0.1730896988075817 0.0 0.8681306686199823 0.15531632894295538 0.0 0.0 0.0 0.0 0.842116880815599 0.16909248291653683 0.0 0.873660204273741 0.16646879816631377 0.0 1.1219379386058925 0.015604309803110268 0.0 1.2668930604912623 0.026728423276785852 0.0 1.0075063577543242 -0.014781965372380506 0.0 0.7276180650797099 -0.05481123393652146 0.0 1.2148621201012104 0.09129292563079279 0.0 0.7164200283692808 -0.1648064021914957 0.0 1.1241711913688046 -0.10956410562901898 0.0 1.1060674000694029 0.01760451067910002 0.0 1.284695781871946 0.03516688012478106 0.0 0.6962808787942474 0.038181704803259435 0.0 1.2512236555964866 0.02625761547035389 0.0 1.095076004348243 0.051569220472975845 0.0 -0.06913678968897832 0.009102990485862423 0.0 -0.19332479732661365 0.013438320717105563 0.0 0.9499883801993534 0.3260922349253271 0.0 1.0059418150347468 -0.04769182309609322 0.0 0.5128747759295039 -0.025413745237308775 0.0 0.0 0.0 0.0 1.2260418054521203 -0.000635937642171389 0.0 1.252676368765821 -0.007753023190278405 0.0 1.235378838613395 0.06250358028064439 0.0 1.1123054770176495 -0.07613381025613301 0.0 0.4635106853468403 0.012727072351778604 0.0 1.2473674575069422 0.053673393251883014 0.0 1.2377673487556982 0.09484947643607135 0.0 -0.013003892096070483 -0.004154578094210796 0.0 -0.16918893892361495 -0.009303196945936947 0.0 -0.15867507081456686 -0.006505708041986282 0.0 -0.15518775959361852 0.015947950724516567 0.0 1.1522551339655605 0.1663111056198577 0.0 0.7728956217474996 0.18312194430341666 0.0 0.7775376648141019 0.14633339036915835 0.0 0.7858254004845522 0.10204092103722982 0.0 0.617788440765342 0.10387114397836414 0.0 0.4015015446486612 -0.009406663018030113 0.0 0.07377401699553855 0.013157815485656593 0.0 0.47201956010390306 -0.04370388736568299 0.0 0.9926504062586459 0.0441289287944194 0.0 0.0 0.0 0.0 0.6237662559655163 0.051699960064508985 0.0 1.0494054940314725 0.07474042586075061 0.0 -0.22320094779028354 0.019916782278173444 0.0 1.0798458988356636 0.22187965414607494 0.0 0.9012706351014201 0.1081418748770393 0.0 1.2698366581403238 -0.09076710350957372 0.0 0.1920272880672948 0.019712078816111662 0.0 0.43667253550049734 0.06352951180948062 0.0 0.14365093937788587 0.030413594101302 0.0 1.25685041081367 0.07976186928068503 0.0 -0.21519554980357716 0.010700532981029005 0.0 -0.17512071493344353 0.003511031532282741 0.0 -0.20622031236949 0.01440872471711168 0.0 -0.1279531877627366 0.026598502927269257 0.0 -0.19332632913643064 0.023097821688043547 0.0 -0.2324828283083406 0.02286184942201038 0.0 -0.15329587198447323 0.02851443961961939 0.0 -0.11389698047081621 0.02202629929911555 0.0 -0.23692889811283463 0.023205670990502837 0.0 0.07285004683552798 0.0039292380057479055 0.0 -0.11643401987772219 0.024914069573783375 0.0 -0.22848549104516505 0.021245523039922255 0.0 -0.23376389628232605 0.023612821023447614 0.0 -0.06212285583283012 0.007551142080933668 0.0 0.0 0.0 0.0 0.9372361705112929 0.22898646100509104 0.0 0.9517166064363525 0.038272845976057845 0.0 0.26383789738034635 -0.008582003834536944 0.0 0.34253616344437204 0.02000773321624626 0.0 0.6607655968160231 0.06800842820037914 0.0 1.029162825698285 0.09321198948608733 0.0 1.2216897072464832 0.07803300269222228 0.0 1.2537938657784709 -0.022878239507999686 0.0 0.07448891690139554 0.037795053869048814 0.0 -0.09094333438164522 0.015252920136048086 0.0 0.04787121518944795 -0.02918147209483455 0.0 0.17219638188493303 -0.013759520645351585 0.0 0.18100173718074666 -0.02943382479370832 0.0 0.42591001628509634 -0.050093038851666875 0.0 0.7548099651706662 -0.10969226332126847 0.0 1.0101363318408458 -0.10063312989209544 0.0 0.5066003852220782 -0.0719235736195113 0.0 0.7068036847392979 -0.07457145616248499 0.0 0.8199104177069777 -0.09798361829923259 0.0 0.9212467598715636 -0.08051222846682639 0.0 0.3856726261851408 -0.07044770880333866 0.0 1.257054888025174 -0.11074740181650504 0.0 1.157875720395637 -0.09634501954892896 0.0 1.278961013767336 -0.0660889385276498 0.0 1.1504188609377382 -0.0782384100308177 0.0 -0.04587430755240044 -0.025985217479546126 0.0 1.1386866656653023 -0.12260996334028033 0.0 1.1554433709782377 -0.0638539786043162 0.0 1.0815993366936627 -0.08422659479842451 0.0 -0.16458107184110393 -0.007906543640650045 0.0 0.6378610102022294 -0.10691925802944639 0.0 1.1562510019984646 -0.14611565491440595 0.0 0.2240533516921113 -0.06141935744391793 0.0 -0.2124527430780712 0.01386452348007666 0.0 1.223712112414058 -0.14264095358723627 0.0 0.1499616665729972 -0.07367985799660703 0.0 -0.1788958469716844 -0.0008810795628273239 0.0 -0.06957206386897416 0.034602734739243426 0.0 0.1090994744550767 -0.05888075121214627 0.0 -0.07247438566917386 -0.03536455941760886 0.0 0.6075376092905482 -0.12176921245471141 0.0 -0.02555310301081035 -0.05121651372734957 0.0 0.17713977790667002 0.020076199825832267 0.0 -0.14254121467422728 0.015895284502035895 0.0 -0.06499744714391141 -0.04773867184162467 0.0 -0.139314662241372 -0.01603432081432226 0.0 0.03176439653935901 0.039686683328496654 0.0 1.0888177354943644 0.11663309207423397 0.0 0.4108371547214651 0.08269975373023924 0.0 0.4868763193926992 -0.12399474092235173 0.0 0.31981489826416 -0.02060620386041406 0.0 0.8432344973853501 -0.05057541001610863 0.0 0.359582433006146 0.04209055765011985 0.0 1.2025995961970761 0.09712358149726259 0.0 1.0003693180847344 0.11206420642154549 0.0 1.0676020075053783 -0.15695049244752768 0.0 -0.12781904304892613 0.02144904085172191 0.0 -0.1054848651736021 0.0033195703543148106 0.0 -0.212092054954218 0.015516649997876006 0.0 -0.11052455803650138 0.037991327255395266 0.0 -0.12998677803483422 -0.0006201749357546279 0.0 0.4883049988253803 -0.09932853279766599 0.0 1.2027537508175674 -0.14831662187402114 0.0 0.8196211482822444 -0.13538495661568703 0.0 1.0403542572434064 -0.1633351219604428 0.0 -0.047989226945379014 0.01063187505940267 0.0 0.1598433672416294 -0.08596237184723557 0.0 0.06490411035401837 -0.0794145397449205 0.0 0.3739030189042842 -0.11677627491114552 0.0 0.044358899977865685 -0.07414522347590852 0.0 1.14955555965381 0.12038119161858121 0.0 -0.051235586780962517 -0.046538791895713284 0.0 0.036122897080425986 -0.030133690905235884 0.0 -0.017624577070315107 -0.05048301341307458 0.0 0.16399019204010454 -0.09001874878704806 0.0 0.4168114509894543 0.07594565142058457 0.0 0.8800233366448471 -0.1498597648089429 0.0 0.7095805578688575 -0.14200816083993892 0.0 0.9610342946994066 -0.1374707004998255 0.0 0.4292969960771845 -0.10828571338336543 0.0 0.9770208045195435 -0.16412489626192037 0.0 1.1919030788349538 -0.1551895886618989 0.0 1.155801559479353 -0.15037277039373098 0.0 1.144309263653468 -0.13728946485492602 0.0 0.7948125390251851 -0.15360355018268299 0.0 0.7083336219521911 -0.14732249852417342 0.0 0.5859348682378774 -0.13268286790429465 0.0 0.5626901562594281 -0.1349405004168849 0.0 0.29063929132825334 -0.1093654274115809 0.0 0.9416042893243336 -0.15579642358980733 0.0 0.31231505226052303 0.06061520982579943 0.0 0.733820796737397 0.09145251127891241 0.0 0.049775204789078965 0.04558607502876622 0.0 0.20156340360094888 0.06346816233634679 0.0 -0.1541362195459917 0.03288628332525287 0.0 1.2252965282452295 0.01690206110098408 0.0 1.0733774013662567 0.0646448221923759 0.0 1.2540079660291976 -0.04843973984641146 0.0 1.1909314423793222 -0.10440086974645177 0.0 0.3234896302285232 -0.11099134509792664 0.0 0.5371330679151456 -0.1171323587221441 0.0 0.6791281068043018 0.10084701090489805 0.0 0.08903372342510132 0.05411877807658355 0.0 1.190437391471741 0.03935931112612635 0.0 1.2435442441132754 -0.07023975817183709 0.0 0.6528561247546386 0.08510776681769844 0.0 1.1932177483904132 -0.12069236130118374 0.0 0.712761925383493 0.09811604243709768 0.0 1.2201201028084643 0.10702334640748383 0.0 0.4144998088043337 0.08298770899761218 0.0 0.8256675209480265 0.11361562627660386 0.0 1.2107076243140538 0.0594801716600156 0.0 1.104604787955511 -0.05290624294896314 0.0 1.1724855885456273 -0.12981406126354836 0.0 0.9415632211291725 0.11298692735824975 0.0 1.1036785767785655 0.12148077562749392 0.0 1.1492615948223581 0.11607280177924408 0.0 1.1747304991796808 0.11891565180082452 0.0 1.1329582320580922 0.12490288055650126 0.0 1.049721863795593 0.1226889207723825 0.0 0.7880424768112415 0.1109339122144062 0.0 1.093401064788377 -0.12316136725381632 0.0 0.0 0.0 0.0 1.158434731002803 0.08513170934242738 0.0 0.997939100503003 0.12091874304828927 0.0 0.4108016585619067 0.07865615399066375 0.0 1.1664883242221733 0.097604088250237 0.0 0.9870167295020786 0.12168256108412621 0.0 1.1881840199610816 0.11614964641825541 0.0 0.7171411296983193 0.10326733522210858 0.0 1.1613311956017942 0.1193780549702711 0.0 0.6735973653978657 0.0926251163654978 0.0 0.33221531342619254 0.06262973285223539 0.0 1.1356511665518505 0.12453437717039438 0.0 0.7810848463999023 0.10603859775350973 0.0 1.0959608482430598 0.12449001782048615 0.0 0.9424604535747403 0.11691638936517429 0.0 0.8911751976339217 0.11134670043560063 0.0 1.17501956931347 0.1212647282666406 0.0 1.1307570081790024 0.12407294952337909 0.0 1.1488912741736061 0.10440880343076063 0.0 0.19699899248271252 0.05326773987375472 0.0 0.9408783133485589 0.08481306468593218 0.0 1.153503615435 0.12349945376036353 0.0 1.133139199785701 0.12498578272719034 0.0 1.1215929074900395 0.12104834205916486 0.0 1.135433104226252 0.12155135713415803 0.0 1.12723044775178 0.10525062128547572 0.0 0.9931110245005333 0.07869651359510706 0.0 1.0241784822286566 0.1222266003227348 0.0 1.0372000041436158 0.10070411447376693 0.0 1.1122686875852776 0.10514856620741682 0.0 0.8241778493918784 0.06696537294120113 0.0 1.127982958294502 0.12665066975386693 0.0 1.096835981721624 0.12846036102651967 0.0 1.0889704822623236 0.12514487868983848 0.0 1.0456464563811727 0.10497903283550857 0.0 0.0 0.0 0.0 0.6487086251569161 -0.007792143076203252 0.0 1.0904979885465527 0.4096474677335033 0.0 1.1824518691978645 0.3865160910970981 0.0 1.098744854259716 -0.40268808371277554 0.0 0.8599654222294845 -0.2069534337624618 0.0 0.9716030470178642 -0.22458414515160657 0.0 0.893793588910692 -0.08392091397617121 0.0 1.2605717840505082 -0.009349354094389846 0.0 1.1687356495337817 -0.023647159544181163 0.0 1.2514270188890584 -0.053905731640233365 0.0 1.1770013801600694 -0.03552752893345287 0.0 1.217748068792545 -0.008636064720020872 0.0 -0.1426392671706549 -0.007726160082342102 0.0 -0.13336734568479106 0.02899279580922008 0.0 -0.07273568908147475 0.02975399344992966 0.0 -0.07788842401398441 0.04042773263152443 0.0 0.06359238333729995 0.0377743515064731 0.0 -0.11572098463511185 0.030318149458638546 0.0 -0.03966871494806546 0.05635816650441263 0.0 0.08600564135980328 0.04414402018229894 0.0 -0.03388576596503706 0.06751742520227415 0.0 -0.08155586277130071 0.04503333758220055 0.0 0.9884147247052519 0.11975763491520189 0.0 -0.1416740393154884 0.03262192748367681 0.0 1.1797828578519771 -0.1498286443020587 0.0 1.1673458628527575 -0.16250982319619167 0.0 1.0691801180166198 -0.16586048436739265 0.0 1.133647019685752 -0.16161168310210522 0.0 1.1137653479293508 -0.11884632534598143 0.0 1.0307327115105394 -0.16143131611641093 0.0 1.1330646370789987 -0.13341402127129526 0.0 1.1018406866345436 -0.15027090293744189 0.0 1.131555013962547 -0.15403478009359434 0.0 0.9743982704086532 -0.1358570618781287 0.0 1.011317688667129 -0.14724844222990688 0.0 0.8077488038233842 -0.14063160389186766 0.0 1.095812360386519 -0.13555311003168233 0.0 1.095016446285807 -0.10231804298178963 0.0 1.0687476332820047 -0.11897641928409361 0.0 0.9351805786741749 -0.08726132827076968 0.0 1.1065561214403423 -0.11577981691957515 0.0 0.8302460791477528 -0.11501209399771965 0.0 1.0835953498296245 -0.10039153529767084 0.0 0.9991870768354515 -0.10975906567101276 0.0 0.7701582576866978 -0.08685663688048212 0.0 0.9082803334131614 -0.06666294619713216 0.0 0.8578160929697092 -0.10101654853799948 0.0 0.4021824432927322 -0.08786964700536061 0.0 0.9499342864857611 -0.09023562979368342 0.0 0.6347937558913771 -0.09427173069348757 0.0 1.0646416440634727 -0.05638229386945146 