<?xml version="1.0"?>
<VTKFile type="UnstructuredGrid"  version="0.1"  >
<UnstructuredGrid>
<Piece  NumberOfPoints="1289" NumberOfCells="2413">
<Points>
<DataArray  type="Float64"  NumberOfComponents="3"  format="ascii">0 0 0  0 0.41 0  2.2 0.41 0  2.2 0 0  0.1 0.1 0  0.1 0.3 0  0.8 0.3 0  0.8 0.1 0  0.25 0.2 0  0.248976 0.210065 0  0.245948 0.219718 0  0.241038 0.228563 0  0.234448 0.23624 0  0.226448 0.242432 0  0.217365 0.246888 0  0.207571 0.249423 0  0.197468 0.249936 0  0.187467 0.248404 0  0.17798 0.24489 0  0.169395 0.239539 0  0.162062 0.232569 0  0.156283 0.224265 0  0.152293 0.214968 0  0.150257 0.205058 0  0.150257 0.194942 0  0.152293 0.185032 0  0.156283 0.175735 0  0.162062 0.167431 0  0.169395 0.160461 0  0.17798 0.15511 0  0.187467 0.151596 0  0.197468 0.150064 0  0.207571 0.150577 0  0.217365 0.153112 0  0.226448 0.157568 0  0.234448 0.16376 0  0.241038 0.171437 0  0.245948 0.180282 0  0.248976 0.189935 0  1.1 0 0  1.1 0.41 0  0.1 0.2 0  0.45 0.1 0  0.45 0.3 0  0.55 0 0  0.275 0.1 0  0.275 0.3 0  0.275 0 0  0.55 0.41 0  0 0.205 0  0.825 0 0  0.825 0.41 0  0.275 0.41 0  0.1 0.15 0  0.1875 0.1 0  0.1 0.25 0  0.1875 0.3 0  0.132322 0.2 0  0.241426 0.253518 0  0.241426 0.146482 0  0.264574 0.17974 0  0.264574 0.22026 0  0.138434 0.187348 0  0.153372 0.150948 0  0.148413 0.164094 0  0.176495 0.136535 0  0.22768 0.143571 0  0.138434 0.212652 0  0.148413 0.235906 0  0.176495 0.263465 0  0.22768 0.256429 0  0.23125 0.3 0  0.24769 0.24094 0  0.23125 0.1 0  0.24769 0.15906 0  0.26253 0.193641 0  0.190482 0.137872 0  0.166753 0.146661 0  0.157737 0.244461 0  0.190482 0.262128 0  0.203107 0.261264 0  0.253635 0.22977 0  0.203107 0.138736 0  0.253635 0.17023 0  0.261028 0.206206 0  0.167707 0.251809 0  0.143629 0.224191 0  0.215302 0.2591 0  0.270465 0.245894 0  0.215302 0.1409 0  0.270465 0.154106 0  0.284052 0.202587 0  0.14375 0.3 0  0.209375 0.3 0  0.225966 0.278501 0  0.209375 0.1 0  0.225966 0.121499 0  0.211613 0.273759 0  0.211613 0.126241 0  0.143629 0.175809 0  0.1 0.175 0  0.133484 0.164832 0  0.144491 0.249539 0  0.1 0.225 0  0.133484 0.235168 0  0.3625 0.3 0  0.25691 0.253381 0  0.25691 0.146619 0  0.277205 0.188698 0  0.184724 0.275712 0  0.237372 0.268285 0  0.184724 0.124288 0  0.237372 0.131715 0  0.197578 0.273149 0  0.193656 0.286994 0  0.197578 0.126851 0  0.193656 0.113006 0  0.122953 0.187671 0  0.118362 0.153758 0  0.155372 0.258107 0  0.122953 0.212329 0  0.118362 0.246242 0  0.276394 0.27264 0  0.276394 0.12736 0  0.280965 0.170013 0  0.253125 0.3 0  0.14375 0.1 0  0.253125 0.1 0  0.269489 0.26014 0  0.269489 0.13986 0  0.303639 0.184297 0  0.165625 0.3 0  0.134742 0.273113 0  0.257831 0.274737 0  0.255279 0.128499 0  0.3625 0.1 0  0.165625 0.1 0  0.162031 0.132368 0  0.134955 0.126405 0  0.149334 0.125568 0  0.142936 0.139597 0  0.12695 0.140259 0  0.242514 0.285501 0  0.242514 0.114499 0  0.1 0.125 0  0.117483 0.12555 0  0.11154 0.139776 0  0.121875 0.1 0  0.109143 0.1125 0  0.126805 0.114 0  0.220313 0.29129 0  0.351562 0.287369 0  0.207222 0.2866 0  0.220312 0.10871 0  0.1375 0 0  0.20625 0 0  0.207222 0.1134 0  0.11722 0.17118 0  0.1 0.1625 0  0.0778409 0.16875 0  0.0862762 0.15625 0  0 0.15375 0  0 0.1025 0  0.11722 0.22882 0  0.1 0.2375 0  0 0.3075 0  0.0862762 0.23125 0  0.0598995 0.222547 0  0.0860223 0.2125 0  0.289584 0.181469 0  0.300267 0.16446 0  0.163832 0.269071 0  0.149597 0.273325 0  0.1 0.275 0  0.268498 0.285953 0  0.31875 0.3 0  0.294154 0.254672 0  0.296875 0.3 0  0.293558 0.271845 0  0.285095 0.286799 0  0.324298 0.264316 0  0.307866 0.263745 0  0.317093 0.234901 0  0.315485 0.281219 0  0.316547 0.250625 0  0.344693 0.243731 0  0.331592 0.251147 0  0.35129 0.270663 0  0.338689 0.263683 0  0.340625 0.3 0  0.249849 0.264383 0  0.265097 0.11422 0  0.284688 0.156136 0  0.242188 0.324017 0  0.0856613 0.2625 0  0.132812 0.0612217 0  0.264062 0.0612217 0  0.198437 0.07598340000000001 0  0.0860223 0.1375 0  0.0794526 0.191089 0  0.285228 0.140397 0  0.298655 0.148737 0  0.31875 0.1 0  0.327335 0.15374 0  0.296875 0.1 0  0.312289 0.155283 0  0.313348 0.135607 0  0.321802 0.173916 0  0.298433 0.134116 0  0.112124 0.2625 0  0.127526 0.259083 0  0.121875 0.3 0  0.0682687 0.241503 0  0.1 0.2875 0  0.117762 0.28125 0  0.107813 0.3 0  0.103906 0.313849 0  0.0778409 0.28125 0  0.1375 0.41 0  0.0862762 0.29375 0  0.08886860000000001 0.24375 0  0.307812 0.338778 0  0.307812 0.292227 0  0.33216 0.279164 0  0.387888 0.266414 0  0.264063 0.31948 0  0.110937 0.07598340000000001 0  0.242188 0.07598340000000001 0  0.319914 0.11839 0  0.340625 0.1 0  0.334448 0.133793 0  0.329687 0.108539 0  0.346259 0.118491 0  0.360334 0.173636 0  0.327539 0.205033 0  0.132812 0.288712 0  0.362436 0.278836 0  0.368105 0.259418 0  0.4125 0.41 0  0.329687 0.324017 0  0.329687 0.292306 0  0.285938 0.318952 0  0.417187 0.338778 0  0.324481 0.14148 0  0.351562 0.106771 0  0.40625 0.1 0  0.341028 0.168342 0  0.319221 0.190479 0  0.335292 0.184501 0  0.305563 0.20794 0  0.220313 0.31948 0  0.132812 0.332772 0  0.0865876 0.311259 0  0.0598995 0.302453 0  0.0906541 0.343255 0  0.353543 0.255837 0  0.36574 0.237633 0  0.405007 0.254279 0  0.275795 0.352123 0  0.4125 0 0  0.35493 0.137394 0  0.366563 0.120618 0  0.35917 0.205246 0  0.198438 0.318952 0  0.0626109 0.263892 0  0.40625 0.3 0  0.354809 0.155936 0  0.386512 0.146872 0  0.373101 0.159939 0  0.384375 0.1 0  0.343394 0.19929 0  0.350682 0.185683 0  0.368101 0.189748 0  0.344016 0.221511 0  0.391108 0.213329 0  0.376279 0.204783 0  0.398843 0.182768 0  0.375804 0.222746 0  0.390665 0.196958 0  0.394004 0.23518 0  0.359883 0.222828 0  0.419908 0.204359 0  0.404243 0.204783 0  0.412615 0.224526 0  0.20625 0.41 0  0.165625 0.325257 0  0.0347982 0.244954 0  0.379558 0.247154 0  0.34165 0.147603 0  0.372264 0.136992 0  0.388988 0.121989 0  0.373437 0.108554 0  0.351562 0.31948 0  0.391367 0.16527 0  0.399572 0.223324 0  0.452011 0.227371 0  0.40877 0.239392 0  0.431491 0.237337 0  0.421224 0.250459 0  0.449619 0.262098 0  0.418865 0.276779 0  0.437063 0.252274 0  0.415673 0.263227 0  0.430988 0.266772 0  0.402767 0.273419 0  0.452967 0.244883 0  0.428125 0.3 0  0.408502 0.286186 0  0.384375 0.3 0  0.392267 0.285807 0  0.465927 0.219339 0  0.43489 0.283846 0  0.376424 0.286289 0  0.625 0.3 0  0.473533 0.205186 0  0.461713 0.255517 0  0.5375 0.3 0  0.465725 0.235405 0  0.44631 0.201425 0  0.471875 0.3 0  0.494307 0.227729 0  0.459448 0.206736 0  0.462294 0.180792 0  0.478933 0.227536 0  0.486793 0.21381 0  0.486322 0.251373 0  0.50065 0.215318 0  0.54005 0.175389 0  0.474633 0.189893 0  0.512916 0.208697 0  0.49531 0.199967 0  0.475889 0.175275 0  0.625 0.1 0  0.459311 0.153933 0  0.513645 0.242704 0  0.392892 0.248539 0  0.374815 0.271913 0  0.365974 0.14871 0  0.395312 0.109184 0  0.417061 0.123981 0  0.483196 0.277003 0  0.381967 0.179632 0  0.429898 0.219374 0  0.433473 0.206165 0  0.43149 0.181038 0  0.444208 0.215487 0  0.472985 0.247309 0  0.49375 0.3 0  0.475579 0.262714 0  0.49916 0.274293 0  0.501175 0.184809 0  0.514164 0.225681 0  0.543648 0.214977 0  0.5341630000000001 0.23481 0  0.527396 0.216171 0  0.5375 0.1 0  0.534548 0.202315 0  0.561545 0.192513 0  0.5494289999999999 0.201221 0  0.570923 0.218346 0  0.412582 0.149833 0  0.489327 0.264745 0  0.502439 0.254775 0  0.462391 0.271166 0  0.496775 0.241732 0  0.5294410000000001 0.268606 0  0.482812 0.291099 0  0.46879 0.285038 0  0.452663 0.284065 0  0.51789 0.257882 0  0.53408 0.252026 0  0.560142 0.243543 0  0.545708 0.243474 0  0.547532 0.229019 0  0.55282 0.265323 0  0.398971 0.153424 0  0.400349 0.135684 0  0.410135 0.168145 0  0.428823 0.161323 0  0.415266 0.183779 0  0.329687 0.0810483 0  0.395312 0.0612217 0  0.373437 0.318952 0  0.439062 0.324017 0  0.561816 0.229354 0  0.585029 0.239287 0  0.431827 0.139854 0  0.446796 0.168929 0  0.351562 0.07598340000000001 0  0.395313 0.318944 0  0.54337 0.150762 0  0.460937 0.31948 0  0.418412 0.137529 0  0.428125 0.1 0  0.442783 0.152332 0  0.450742 0.134294 0  0.373437 0.0805201 0  0.384383 0.342558 0  0.482812 0.318952 0  0.429239 0.127457 0  0.444274 0.117405 0  0.426548 0.113815 0  0.49375 0.1 0  0.488954 0.113984 0  0.457973 0.121842 0  0.471621 0.137346 0  0.515625 0.325257 0  0.48125 0.41 0  0.417187 0.07598340000000001 0  0.496363 0.126778 0  0.479043 0.155715 0  0.439062 0.0805201 0  0.481795 0.126919 0  0.471875 0.1 0  0.489227 0.142159 0  0.515625 0.1 0  0.520062 0.147117 0  0.501244 0.161791 0  0.505431 0.112984 0  0.505344 0.14029 0  0.526563 0.119081 0  0.5181750000000001 0.131908 0  0.539868 0.136937 0  0.460937 0.108383 0  0.474242 0.114415 0  0.460937 0.0810483 0  0.487841 0.167168 0  0.526563 0.0612217 0  0.526563 0.106406 0  0.537619 0.112743 0  0.58125 0.1 0  0.559375 0.1 0  0.482812 0.08105569999999999 0  0.471883 0.0587655 0  0.570312 0.129396 0  0.548437 0.07598340000000001 0  0.504687 0.08105569999999999 0  0.49375 0.0470127 0  0.570312 0.112663 0  0.592798 0.12103 0  0.553986 0.12103 0  0.570312 0.0805201 0  0.48125 0 0  0.114787 0.2 0  0.160769 0.284765 0  0.175816 0.288361 0  0.162602 0.116048 0  0.154687 0.07598340000000001 0  0.176562 0.0805201 0  0.0598995 0.147547 0  0.307812 0.109924 0  0.291279 0.117157 0  0.278491 0.112989 0  0.285937 0.07598340000000001 0  0.307812 0.0805201 0  0.296928 0.196743 0  0.318141 0.218507 0  0.330208 0.227509 0  0.301397 0.225668 0  0.302706 0.241401 0  0.292574 0.21424 0  0.282762 0.230935 0  0.284351 0.244775 0  0.269553 0.23261 0  0.278572 0.217242 0  0.226924 0.342606 0  0.446928 0.185396 0  0.515625 0.3 0  0.504687 0.288879 0  0.515256 0.276534 0  0.529479 0.285328 0  0.58125 0.3 0  0.541969 0.272936 0  0.559375 0.3 0  0.556796 0.282529 0  0.543473 0.287206 0  0.581429 0.267774 0  0.566728 0.271171 0  0.570869 0.255585 0  0.577404 0.283865 0  0.603125 0.3 0  0.597531 0.28035 0  0.570312 0.338778 0  0.592188 0.292492 0  0.603513 0.256094 0  0.614063 0.286265 0  0.610329 0.27064 0  0.632708 0.251285 0  0.657223 0.261594 0  0.618789 0.257807 0  0.614188 0.22987 0  0.630935 0.265614 
[...]
<PointData  Vectors="v"> 
	<DataArray  type="Float64"  Name="v"  NumberOfComponents="3" format="ascii">
0.0 0.0 0.0 0.0 0.0 0.0 0.0 0.0 0.0 0.0 0.0 0.0 0.7971764735369958 -0.18869456905999885 0.0 0.8415540940277719 0.19875226610803745 0.0 0.9916741326543401 -0.008428493383732123 0.0 0.9977651603111328 0.05272202649909323 0.0 0.0 0.0 0.0 0.0 0.0 0.0 0.0 0.0 0.0 0.0 0.0 0.0 0.0 0.0 0.0 0.0 0.0 0.0 0.0 0.0 0.0 0.0 0.0 0.0 0.0 0.0 0.0 0.0 0.0 0.0 0.0 0.0 0.0 0.0 0.0 0.0 0.0 0.0 0.0 0.0 0.0 0.0 0.0 0.0 0.0 0.0 0.0 0.0 0.0 0.0 0.0 0.0 0.0 0.0 0.0 0.0 0.0 0.0 0.0 0.0 0.0 0.0 0.0 0.0 0.0 0.0 0.0 0.0 0.0 0.0 0.0 0.0 0.0 0.0 0.0 0.0 0.0 0.0 0.0 0.0 0.0 0.0 0.0 0.0 0.0 0.0 0.0 0.0 0.0 0.0 0.0 0.0 0.0 0.0 0.0 0.0 0.0 0.0 0.0 0.7648530542618225 -0.001956211348178214 0.0 1.2258021742076826 0.13953948367762073 0.0 1.214615883682528 -0.1035330363565153 0.0 0.0 0.0 0.0 1.3016461470203389 -0.07857886489062788 0.0 1.3157913901553568 0.0880224518397987 0.0 0.0 0.0 0.0 0.0 0.0 0.0 1.0 0.0 0.0 0.0 0.0 0.0 0.0 0.0 0.0 0.0 0.0 0.0 0.8468195857186707 -0.2287487448583536 0.0 1.1538380130205015 -0.3025150211579301 0.0 0.8683409522281567 0.22486482736406768 0.0 1.1697533138438103 0.3079950617053782 0.0 0.43211455284926253 -0.005046833919214453 0.0 0.1681019621126273 0.027231327827997486 0.0 0.16930275165406367 -0.02333901283621841 0.0 -0.04636201960258583 -0.06209013183264227 0.0 -0.04994995229455732 0.06606189839293757 0.0 0.33805417808342486 -0.2826942291007252 0.0 0.8730603855847849 -0.6725371402379259 0.0 0.6507839145392713 -0.6941401644263935 0.0 1.242510087228915 -0.602863756651752 0.0 0.30067537354180224 0.002434541918214638 0.0 0.33404715141041386 0.26929155545686395 0.0 0.6530952775990746 0.6726679215126582 0.0 1.222140171282819 0.6032527847327529 0.0 0.29360449578612696 0.0002249937618383568 0.0 1.2837319442274358 0.1914490030181711 0.0 -0.01967941693927191 0.05573994472636967 0.0 1.272141731003836 -0.1771733941339176 0.0 -0.01778477486909144 -0.05186817018872265 0.0 -0.03572028310935057 -0.02334028783189605 0.0 1.2225237534423 -0.3984393613173477 0.0 1.1276232733541232 -0.7304200320101486 0.0 0.8718183992720665 0.7780425138119575 0.0 1.2338463052033783 0.399051123067762 0.0 0.9129318255083266 0.16461450060960603 0.0 -0.03807519331780429 0.07154160873618122 0.0 0.91475313336959 -0.1605841572497484 0.0 -0.03792941433655366 -0.06616477338464746 0.0 -0.030911858220333474 0.025076301911385674 0.0 1.0618548699311496 0.7285448424017983 0.0 0.44828615217904555 0.5322463399863891 0.0 0.540421982598368 0.031605785527237036 0.0 0.07851137117511009 0.049670282554754724 0.0 0.5425184171197409 -0.031090680493460022 0.0 0.07898665312277992 -0.04957756183930685 0.0 -0.11098501155201547 0.004378826483053197 0.0 0.9697374389984755 0.29778217482462865 0.0 1.2535680666658884 0.24443696788007258 0.0 1.2983930545290938 0.20233241190398435 0.0 1.2250809727240783 -0.24502362338570433 0.0 1.2904332332979316 -0.19805347663296824 0.0 1.3071810363139234 0.2530948046205434 0.0 1.305302634054889 -0.24733944802351235 0.0 0.4495254578215635 -0.5501906337768988 0.0 0.8057697860961839 -0.1387815233975172 0.0 0.6789271482142875 -0.41926607347979633 0.0 0.8919657087554541 0.5917661570547571 0.0 0.8033580690691168 0.1406977710875121 0.0 0.6847906126309561 0.41841048508705275 0.0 1.271783315094963 -0.05107313970923395 0.0 0.1959679729523174 0.0339664822777831 0.0 0.20431146549337573 -0.02709712835023473 0.0 -0.08408486403033016 -0.03632386614392839 0.0 1.303750978435128 0.42735160356903085 0.0 0.8821130343337054 0.06671978074099784 0.0 1.2962938582196935 -0.43404566387622745 0.0 0.890526941323287 -0.06128339785895869 0.0 1.334631086847672 0.35897797171111484 0.0 1.2716818621906996 0.3447160689820955 0.0 1.326633556213956 -0.3583005874096566 0.0 1.2602315992303137 -0.3276117250087233 0.0 0.5882890050787233 -0.1613412306382882 0.0 0.802964247020976 -0.3293441595809235 0.0 1.0323483544780205 0.5963621365720909 0.0 0.596520257973792 0.14951816624211106 0.0 0.8194040463031764 0.3277163340825208 0.0 0.8822367258098521 0.0338917770494466 0.0 0.8956391223380431 -0.02842530731442238 0.0 -0.038401244533429406 -0.0600346101327654 0.0 1.3102833273742223 0.13214541649013187 0.0 0.9335785995801509 -0.305308656972583 0.0 1.291441211942852 -0.12156828229934805 0.0 0.416119960311867 0.027034026110889654 0.0 0.4317440389754572 -0.018852600339295457 0.0 -0.12396690992747028 -0.0353646291158628 0.0 1.0631964236110707 0.3224748569538387 0.0 0.953200671030835 0.3797959340818308 0.0 1.0349047069758037 0.0692445079925408 0.0 0.9176973726351854 -0.049443578429414915 0.0 1.281386954567887 0.05003821455098771 0.0 1.0326792846781838 -0.318230091548099 0.0 1.097388354653819 -0.557936950818764 0.0 0.9396880296623293 -0.3794766865784958 0.0 1.0114256024520416 -0.4246583762706988 0.0 0.9467585212217916 -0.5376018884160821 0.0 0.8740323872578584 -0.40117386079528344 0.0 1.3123355753053916 0.15485726990836493 0.0 1.2998904957402564 -0.14869984659939814 0.0 0.8559153305022118 -0.22992318470881742 0.0 0.8846833627628985 -0.3024262351613108 0.0 0.8584284091636882 -0.2941638683250779 0.0 0.853146685027332 -0.2453716116845524 0.0 0.8571724158435932 -0.2444943700402495 0.0 0.9016695786130751 -0.308623322258262 0.0 1.3171543308363693 0.22611240621268144 0.0 1.1731639430201504 -0.04813936547290122 0.0 1.3286621786541413 0.28711413189316043 0.0 1.3059515110421114 -0.21141871607233267 0.0 0.0 0.0 0.0 0.0 0.0 0.0 1.3091906878176962 -0.2779802612857034 0.0 0.7196013579696892 -0.26707734783491555 0.0 0.8243434162891481 -0.20886566893377254 0.0 0.8736276847426405 -0.10925914621765634 0.0 0.8653956644788152 -0.16137555058647035 0.0 0.9375 0.0 0.0 0.7500000000000001 0.0 0.0 0.7278561440072085 0.2634667335645597 0.0 0.8284423186676709 0.1971020222195515 0.0 0.7499999999999999 0.0 0.0 0.8727416420960524 0.12535953520391446 0.0 0.9302192941731304 0.041542040562156976 0.0 0.8509998179260522 0.043894322150001726 0.0 -0.09346742097209582 -0.044320756386528735 0.0 0.009663530105484281 -0.044895988008858 0.0 1.139336271677501 0.5374080260197588 0.0 1.0338481253121972 0.4587776842056771 0.0 0.8842443691721236 0.2383694933528035 0.0 1.2544074166738355 0.08293185516357175 0.0 1.3011843688699427 0.00972596968632382 0.0 0.2964507453740688 0.01704019289591829 0.0 1.3161087676918548 0.045842891172199876 0.0 0.8305870585004734 0.011511462264488724 0.0 1.2353345150265913 0.05113460099431556 0.0 0.5971868093770563 -0.020551522680490392 0.0 0.5619426108666541 -0.0024058469334256247 0.0 -0.0016253509782351429 0.019210774705354202 0.0 1.0827699213141573 -0.005773091935485024 0.0 0.23940111569515385 0.005972441118166147 0.0 0.14463798265690717 -0.012363890210030122 0.0 0.27027188378234446 -0.007233824713807781 0.0 0.7979436912352513 -0.050869069382560785 0.0 0.5918159332943851 -0.032890334147723806 0.0 1.293391911598489 -0.02536701353782258 0.0 0.611500426650554 0.02873748345745908 0.0 1.2589604523876352 -0.08736603008091358 0.0 0.08507157190876252 -0.044264204677024216 0.0 1.1515880070680826 0.11342624402184492 0.0 0.8855794333734963 0.17491147155334727 0.0 0.6956699426083938 -0.15613436511479756 0.0 1.0468050679671812 -0.05920434580657579 0.0 1.0175329104759734 -0.1848815192220045 0.0 0.8662839075375999 -0.17868661077191045 0.0 0.8778734218680745 -0.02561423108600707 0.0 0.42467222568645646 -0.01685256784716358 0.0 0.23428843250293802 -0.024163980798422767 0.0 1.2939369656674256 -0.003378946496895708 0.0 0.1874412980957236 -0.020200770939799915 0.0 1.303395823904955 -0.03956773342263652 0.0 0.1388466488210701 -0.029364289328143986 0.0 0.5993134124240573 0.00714225229337069 0.0 -0.07108698847220764 -0.03824996231847282 0.0 0.6322888924761 -0.002749218157862302 0.0 0.8848461773504969 0.29042928163632664 0.0 0.8884715205268912 0.4042992134438101 0.0 0.8869884489001261 0.2569025145810127 0.0 0.914204731282545 0.1072843418038806 0.0 0.8675101118471845 0.214809211612558 0.0 0.9097146670775399 0.2934764726935039 0.0 0.8587493964530175 0.22309974130271248 0.0 0.8019041094917345 0.17345044242059024 0.0 0.8685058318970628 0.15611731610043436 0.0 0.0 0.0 0.0 0.8425305862009469 0.1697704774711151 0.0 0.8740055488437328 0.16760683352672712 0.0 1.116989373726844 0.010835328288406613 0.0 1.2713682498829182 0.017487832687686975 0.0 1.0205143674121817 -0.028648510499848772 0.0 0.7182537359650756 -0.07782513737050806 0.0 1.2140418860238056 0.086941525437059 0.0 0.7158622162110916 -0.16450734017292767 0.0 1.124403506790452 -0.11234122735317763 0.0 1.0953970642272297 0.0067316587778211414 0.0 1.2906753990758868 0.02550160786386654 0.0 0.6792371354046122 0.021736831914590513 0.0 1.2503377578952664 0.014938910642000345 0.0 1.089249873503626 0.03686789342367024 0.0 -0.0584033532907074 -0.030956739761965935 0.0 -0.1944820066371259 -0.00977732535921596 0.0 0.9509656058095719 0.32642412089148176 0.0 1.0093940447492087 -0.06526196977372152 0.0 0.5149070754793015 -0.05420180803792951 0.0 0.0 0.0 0.0 1.2181842394029638 -0.007177788215846993 0.0 1.254755982561204 -0.019996260984645062 0.0 1.2335156590248513 0.057010846691916785 0.0 1.0993477788950035 -0.06743816740463504 0.0 0.4483650146987828 -0.0008831918143361009 0.0 1.25273787537671 0.04231029366455086 0.0 1.2614860987445573 0.09951408600128749 0.0 -0.007903524942668301 -0.03213330563829598 0.0 -0.1673591074663801 -0.0262308991714225 0.0 -0.1549463625032611 -0.033132129081499276 0.0 -0.15595582518753398 0.006221011498963846 0.0 1.152850778959422 0.16375778562924329 0.0 0.773517120538808 0.18308476250185507 0.0 0.7779327537179237 0.14683952733443928 0.0 0.7860364441790478 0.10265668044661114 0.0 0.6181736653771549 0.10415302713549095 0.0 0.4081089177590876 -0.03621785396316625 0.0 0.06282409397878394 -0.026697458587466534 0.0 0.44278772987393433 -0.0715708315282726 0.0 0.9897798143730034 0.04105609291837701 0.0 0.0 0.0 0.0 0.6137101200723358 0.028688765010871246 0.0 1.0498978821775657 0.05869786187333588 0.0 -0.22557440323972242 -0.024234999130528023 0.0 1.0806363147970357 0.2202704311713462 0.0 0.9014809898922849 0.10901367951565955 0.0 1.2446771653464623 -0.08694203379212691 0.0 0.19532246712645907 -0.011101707660980595 0.0 0.4507107339673936 0.03238109743361338 0.0 0.15716646144657972 -0.008853697734406082 0.0 1.2753979801567612 0.07677017067399591 0.0 -0.21456475428055624 -0.022475650022130627 0.0 -0.16949218597355328 -0.0334262886124051 0.0 -0.19989244535509526 -0.03360164201991946 0.0 -0.13305157066151918 -0.0057081867266557855 0.0 -0.20390978703577112 -0.032036611045885295 0.0 -0.2348238679051175 -0.029698051680711744 0.0 -0.13309251449911222 -0.024252196418368222 0.0 -0.12740691398494394 -0.02668361843349213 0.0 -0.23276976768256294 -0.032488927975359926 0.0 0.04744581695651097 -0.041603999935459664 0.0 -0.12576446419855314 -0.016153032146570774 0.0 -0.23289741783136014 -0.028065201668937383 0.0 -0.2378262190706357 -0.03203326011822104 0.0 -0.09179113019729211 -0.0399527117314899 0.0 0.0 0.0 0.0 0.9380678446838412 0.22836871395926808 0.0 0.9517492189826768 0.038936592852596354 0.0 0.25062748794577994 -0.04661196923936627 0.0 0.3349990825643519 -0.0020002855922353797 0.0 0.660746910789854 0.043210899727877256 0.0 1.042686933568368 0.08064942066891641 0.0 1.2338878065923216 0.06876267966328 0.0 1.2424348620497911 -0.029051336669191626 0.0 0.09955301804540864 -0.006310353831363356 0.0 -0.11359311479119957 -0.03628134335617342 0.0 -0.01162131878807845 -0.03579963754008324 0.0 0.13636191693247018 -0.052513324864763906 0.0 0.12816525766118894 -0.05342400549749678 0.0 0.3800521007765071 -0.0712776563125756 0.0 0.6880291309088553 -0.09279979236385177 0.0 0.9757945921977428 -0.09960441586075834 0.0 0.44589245715648407 -0.07647903814224626 0.0 0.670838998006705 -0.08789158499265481 0.0 0.7716954400957438 -0.09626379509496374 0.0 0.8991019163465406 -0.09241214506650311 0.0 0.31113074941442254 -0.06342481018769237 0.0 1.2287766286932826 -0.0971490827414298 0.0 1.1312096132209637 -0.09597572188499941 0.0 1.260496722524818 -0.07088338820349355 0.0 1.1324797679279393 -0.08659879921144886 0.0 -0.0989744559037553 -0.016894808787182483 0.0 1.0973843035177528 -0.10541909388809403 0.0 1.1463519939925577 -0.07636357761340054 0.0 1.128831930304658 -0.12920323372777484 0.0 -0.17548556774496327 0.010796356495630302 0.0 0.5585868593312663 -0.08075550401610487 0.0 1.1795843729582998 -0.1200552206715699 0.0 0.14569930923024269 -0.043521488692041733 0.0 -0.21105674413382092 -0.008925304192917437 0.0 1.2036271130072518 -0.10752193809889607 0.0 0.06836454262210526 -0.01570881635180735 0.0 -0.1947984072219903 -0.0034007283155405937 0.0 -0.008481924439304638 0.042860616128366634 0.0 0.03368373294684793 -0.021618555821570275 0.0 -0.11594182606178685 0.00757449231046125 0.0 0.515188809693247 -0.07107288458818838 0.0 -0.07590667284428342 0.01465789540968437 0.0 0.24439069956532522 0.1207514203077586 0.0 -0.10009258969780005 0.03790079338912627 0.0 -0.09249019218877902 0.038712147278814876 0.0 -0.13115753763360768 0.04218448592058564 0.0 0.11072290891786142 0.07242253328841981 0.0 1.043575037414255 0.07150358267731328 0.0 0.4913835465463626 0.10156478795187385 0.0 0.3953206718003491 -0.04606746984142151 0.0 0.2977469629404714 -0.05764148813003596 0.0 0.843379241745664 -0.07178462415680768 0.0 0.3625235938344863 0.010598836253424797 0.0 1.2237177715727494 0.09504573641932575 0.0 1.0334880949878114 0.11348786944991726 0.0 1.0128352219203107 -0.10805265773788401 0.0 -0.11177964083994878 -0.028722848735845536 0.0 -0.13928272739414918 -0.03385965929173315 0.0 -0.22118724367548104 -0.02275468787570689 0.0 -0.07101829955940529 0.00473412515733733 0.0 -0.16239763860026524 -0.02539096125192738 0.0 0.39994692721837954 -0.06450551783983559 0.0 1.194744900408422 -0.1096698108908331 0.0 0.7402069169803456 -0.09192050942481801 0.0 0.9862067631157347 -0.10704980225579615 0.0 0.015590228254869224 0.07870708442098887 0.0 0.08361696189368875 -0.0022427323253595105 0.0 0.02787390290240671 0.0344721087852992 0.0 0.2962569685776843 -0.02486715182628021 0.0 -0.004747828545495983 0.02818736695839337 0.0 1.1234126991864208 0.14215007260116372 0.0 -0.05205938748627832 0.06453744684745047 0.0 0.05256855046827347 0.09066212117875336 0.0 -0.015570458998333831 0.07135397382586874 0.0 0.14799621227125828 0.018948209575364774 0.0 0.454902024998007 0.051394684677035535 0.0 0.8030437096334061 -0.09434251988881072 0.0 0.6212275321071244 -0.07563196324759514 0.0 0.8964328066487276 -0.10308079853673388 0.0 0.33332573312814845 -0.04751340333802073 0.0 0.9335545250417155 -0.1041832278764584 0.0 1.1646903168271938 -0.11130969665226076 0.0 1.1125769161687664 -0.11038537898991056 0.0 1.099546885974366 -0.10783610082772076 0.0 0.7176110453030872 -0.08300370138468861 0.0 0.6374222086471055 -0.07218376088404782 0.0 0.5430568282071715 -0.05774391662944501 0.0 0.4984050055126224 -0.05136163907841361 0.0 0.2327873174187646 -0.007592816912772759 0.0 0.9198781169617004 -0.10603558623266907 0.0 0.34037526343766344 0.02664439822133655 0.0 0.7561072941871783 0.0735194360196831 0.0 0.08608740978851599 0.0050463921832324685 0.0 0.2558836680695027 0.042762153912509926 0.0 -0.12736673134398144 -0.014469737756076646 0.0 1.2326368807969654 0.01049650028673838 0.0 1.0859155032124534 0.06863668857135898 0.0 1.2385634775473517 -0.05085556254253534 0.0 1.1776622717098517 -0.08554184319056543 0.0 0.2836662751325325 -0.012671573958070817 0.0 0.5393753497240434 -0.059028351028052546 0.0 0.7317827189876105 0.10121312687509515 0.0 0.15398967224634202 0.047090031115292176 0.0 1.2013688908664544 0.03477603073948852 0.0 1.2247732324565654 -0.06723536278889021 0.0 0.7112094106594233 0.15568822306509206 0.0 1.1832202739101425 -0.09464060181457287 0.0 0.7513329607668707 0.0901255654832638 0.0 1.2466717525355013 0.12280762785871677 0.0 0.4816703059059844 0.08459674498670927 0.0 0.8876503269049705 0.1367754948021189 0.0 1.2253898263775946 0.05761577755912116 0.0 1.0921225450550527 -0.05139208743327982 0.0 1.1717503303202923 -0.1006969251894095 0.0 0.9847703096403116 0.12106947515421497 0.0 1.1450866762179268 0.14597607525473918 0.0 1.183983982776475 0.12975003360934095 0.0 1.178219418277442 0.15558913647636427 0.0 1.1597309589120213 0.17064733137993313 0.0 1.0987937356301019 0.15656102825027748 0.0 0.8628779975320844 0.15278560481159517 0.0 1.112062476271475 -0.10111803771290143 0.0 0.0 0.0 0.0 1.173185437465477 0.09615213197861043 0.0 1.0475470487492198 0.174697287638838 0.0 0.5021421541694068 0.12159142619287051 0.0 1.1810121216646507 0.11690674057742154 0.0 1.0427473776065905 0.1708459332417143 0.0 1.2042152015153993 0.14985932573979105 0.0 0.7999560524304992 0.1586868844870941 0.0 1.1491348518824163 0.15140170577316142 0.0 0.7512649484249135 0.16303460454380383 0.0 0.4290301716304035 0.12956810732860852 0.0 1.1484746222121642 0.16992978142530324 0.0 0.8556378630383357 0.16934688459289327 0.0 1.103951860001336 0.16819267022955314 0.0 0.9890673942749568 0.17552205890751638 0.0 0.9269667115285761 0.1662388030594227 0.0 1.2049203285698422 0.15563076377868804 0.0 1.1648249609803847 0.16542693812390338 0.0 1.1567665210566163 0.12959328033479206 0.0 0.290169836417978 0.10390032515514057 0.0 0.9139853379032976 0.094146871548234 0.0 1.140331517610025 0.15664992059594787 0.0 1.1187699046786446 0.1562541902981514 0.0 1.0747386678807904 0.1086678039886954 0.0 1.0959637450600217 0.1278951436554603 0.0 1.1241910159462947 0.13207470519388964 0.0 0.9898075206693319 0.0941226686172641 0.0 1.0057434858053609 0.14036808244059934 0.0 1.0024673781995121 0.10440876318448397 0.0 1.0993349469148264 0.12924419826206968 0.0 0.8044665477879954 0.0777312874261049 0.0 1.088874471598352 0.12950124304200847 0.0 1.0486481462415989 0.11319780680942797 0.0 1.073788702579136 0.15123935926869317 0.0 1.0052953108911429 0.09598708525942404 0.0 0.0 0.0 0.0 0.6487288974861105 -0.0064147208996187715 0.0 1.0919398186540537 0.40946389488475315 0.0 1.1841617601329402 0.3858034047691793 0.0 1.0972552420879087 -0.4028838800272913 0.0 0.8591109588581444 -0.20727512919210306 0.0 0.9706827664862586 -0.22541781933737756 0.0 0.8936300032910043 -0.08300747872124711 0.0 1.2562323520074135 -0.017810566051503416 0.0 1.1595296484746491 -0.029841779933276764 0.0 1.2457475642336724 -0.059093828372459765 0.0 1.1796854437758424 -0.04037755060950769 0.0 1.222111673537812 -0.014855378972918103 0.0 -0.14237439862282525 -0.013277280728067277 0.0 -0.13551835451596025 0.012944393925684463 0.0 -0.07680026178505615 0.006952295084840123 0.0 -0.07874942467104558 0.0336643751528909 0.0 0.06810689406431501 0.03155878702067609 0.0 -0.1165869466917312 0.026784922033976893 0.0 -0.03862382702162151 0.05671472678906174 0.0 0.09267882215746616 0.04369580848271752 0.0 -0.03260882429804101 0.07107431352679902 0.0 -0.08221565104155412 0.04630269221174402 0.0 0.9880095786842644 0.11767323780637949 0.0 -0.10010155166835374 0.01353992763079774 0.0 1.1872540980658473 -0.11442896127943224 0.0 1.149477389751613 -0.11501434906388654 0.0 1.032520934049295 -0.1107208237644175 0.0 1.1300490318454814 -0.11847379710448587 0.0 1.1599181949311819 -0.12841280857968682 0.0 1.012768047609282 -0.11333617850204812 0.0 1.1714071342904184 -0.12429827915359357 0.0 1.1196203052333822 -0.1253318120213162 0.0 1.1448861044697505 -0.12256057747822771 0.0 0.9964595490429422 -0.12231021742337031 0.0 1.019336326722008 -0.12042384314536587 0.0 0.7951325226135163 -0.09460439356709133 0.0 1.133492505389591 -0.13222859841193185 0.0 1.1457975763295005 -0.1308652796166583 0.0 1.1185103327949122 -0.13658709404572242 0.0 0.9679273320265596 -0.09396353882371986 0.0 1.1564848021055507 -0.134406665686273 0.0 0.8733160095036095 -0.11390656806236618 0.0 1.1393401591031886 -0.13817937460824883 0.0 1.055296624192324 -0.13567241780428152 0.0 0.8589387607771736 -0.11875180321092174 0.0 1.0039025978945342 -0.13362670036244934 0.0 0.9233001064441704 -0.12401413323040932 0.0 0.4661036895061221 -0.05197282544711098 0.0 1.0241258016055261 -0.13586979553341086 0.0 0.7082697692417038 -0.09525463665869013 0.0 1.0895427156056088 -0.11339124888