<?xml version="1.0"?>
<VTKFile type="UnstructuredGrid"  version="0.1"  >
<UnstructuredGrid>
<Piece  NumberOfPoints="1289" NumberOfCells="2413">
<Points>
<DataArray  type="Float64"  NumberOfComponents="3"  format="ascii">0 0 0  0 0.41 0  2.2 0.41 0  2.2 0 0  0.1 0.1 0  0.1 0.3 0  0.8 0.3 0  0.8 0.1 0  0.25 0.2 0  0.248976 0.210065 0  0.245948 0.219718 0  0.241038 0.228563 0  0.234448 0.23624 0  0.226448 0.242432 0  0.217365 0.246888 0  0.207571 0.249423 0  0.197468 0.249936 0  0.187467 0.248404 0  0.17798 0.24489 0  0.169395 0.239539 0  0.162062 0.232569 0  0.156283 0.224265 0  0.152293 0.214968 0  0.150257 0.205058 0  0.150257 0.194942 0  0.152293 0.185032 0  0.156283 0.175735 0  0.162062 0.167431 0  0.169395 0.160461 0  0.17798 0.15511 0  0.187467 0.151596 0  0.197468 0.150064 0  0.207571 0.150577 0  0.217365 0.153112 0  0.226448 0.157568 0  0.234448 0.16376 0  0.241038 0.171437 0  0.245948 0.180282 0  0.248976 0.189935 0  1.1 0 0  1.1 0.41 0  0.1 0.2 0  0.45 0.1 0  0.45 0.3 0  0.55 0 0  0.275 0.1 0  0.275 0.3 0  0.275 0 0  0.55 0.41 0  0 0.205 0  0.825 0 0  0.825 0.41 0  0.275 0.41 0  0.1 0.15 0  0.1875 0.1 0  0.1 0.25 0  0.1875 0.3 0  0.132322 0.2 0  0.241426 0.253518 0  0.241426 0.146482 0  0.264574 0.17974 0  0.264574 0.22026 0  0.138434 0.187348 0  0.153372 0.150948 0  0.148413 0.164094 0  0.176495 0.136535 0  0.22768 0.143571 0  0.138434 0.212652 0  0.148413 0.235906 0  0.176495 0.263465 0  0.22768 0.256429 0  0.23125 0.3 0  0.24769 0.24094 0  0.23125 0.1 0  0.24769 0.15906 0  0.26253 0.193641 0  0.190482 0.137872 0  0.166753 0.146661 0  0.157737 0.244461 0  0.190482 0.262128 0  0.203107 0.261264 0  0.253635 0.22977 0  0.203107 0.138736 0  0.253635 0.17023 0  0.261028 0.206206 0  0.167707 0.251809 0  0.143629 0.224191 0  0.215302 0.2591 0  0.270465 0.245894 0  0.215302 0.1409 0  0.270465 0.154106 0  0.284052 0.202587 0  0.14375 0.3 0  0.209375 0.3 0  0.225966 0.278501 0  0.209375 0.1 0  0.225966 0.121499 0  0.211613 0.273759 0  0.211613 0.126241 0  0.143629 0.175809 0  0.1 0.175 0  0.133484 0.164832 0  0.144491 0.249539 0  0.1 0.225 0  0.133484 0.235168 0  0.3625 0.3 0  0.25691 0.253381 0  0.25691 0.146619 0  0.277205 0.188698 0  0.184724 0.275712 0  0.237372 0.268285 0  0.184724 0.124288 0  0.237372 0.131715 0  0.197578 0.273149 0  0.193656 0.286994 0  0.197578 0.126851 0  0.193656 0.113006 0  0.122953 0.187671 0  0.118362 0.153758 0  0.155372 0.258107 0  0.122953 0.212329 0  0.118362 0.246242 0  0.276394 0.27264 0  0.276394 0.12736 0  0.280965 0.170013 0  0.253125 0.3 0  0.14375 0.1 0  0.253125 0.1 0  0.269489 0.26014 0  0.269489 0.13986 0  0.303639 0.184297 0  0.165625 0.3 0  0.134742 0.273113 0  0.257831 0.274737 0  0.255279 0.128499 0  0.3625 0.1 0  0.165625 0.1 0  0.162031 0.132368 0  0.134955 0.126405 0  0.149334 0.125568 0  0.142936 0.139597 0  0.12695 0.140259 0  0.242514 0.285501 0  0.242514 0.114499 0  0.1 0.125 0  0.117483 0.12555 0  0.11154 0.139776 0  0.121875 0.1 0  0.109143 0.1125 0  0.126805 0.114 0  0.220313 0.29129 0  0.351562 0.287369 0  0.207222 0.2866 0  0.220312 0.10871 0  0.1375 0 0  0.20625 0 0  0.207222 0.1134 0  0.11722 0.17118 0  0.1 0.1625 0  0.0778409 0.16875 0  0.0862762 0.15625 0  0 0.15375 0  0 0.1025 0  0.11722 0.22882 0  0.1 0.2375 0  0 0.3075 0  0.0862762 0.23125 0  0.0598995 0.222547 0  0.0860223 0.2125 0  0.289584 0.181469 0  0.300267 0.16446 0  0.163832 0.269071 0  0.149597 0.273325 0  0.1 0.275 0  0.268498 0.285953 0  0.31875 0.3 0  0.294154 0.254672 0  0.296875 0.3 0  0.293558 0.271845 0  0.285095 0.286799 0  0.324298 0.264316 0  0.307866 0.263745 0  0.317093 0.234901 0  0.315485 0.281219 0  0.316547 0.250625 0  0.344693 0.243731 0  0.331592 0.251147 0  0.35129 0.270663 0  0.338689 0.263683 0  0.340625 0.3 0  0.249849 0.264383 0  0.265097 0.11422 0  0.284688 0.156136 0  0.242188 0.324017 0  0.0856613 0.2625 0  0.132812 0.0612217 0  0.264062 0.0612217 0  0.198437 0.07598340000000001 0  0.0860223 0.1375 0  0.0794526 0.191089 0  0.285228 0.140397 0  0.298655 0.148737 0  0.31875 0.1 0  0.327335 0.15374 0  0.296875 0.1 0  0.312289 0.155283 0  0.313348 0.135607 0  0.321802 0.173916 0  0.298433 0.134116 0  0.112124 0.2625 0  0.127526 0.259083 0  0.121875 0.3 0  0.0682687 0.241503 0  0.1 0.2875 0  0.117762 0.28125 0  0.107813 0.3 0  0.103906 0.313849 0  0.0778409 0.28125 0  0.1375 0.41 0  0.0862762 0.29375 0  0.08886860000000001 0.24375 0  0.307812 0.338778 0  0.307812 0.292227 0  0.33216 0.279164 0  0.387888 0.266414 0  0.264063 0.31948 0  0.110937 0.07598340000000001 0  0.242188 0.07598340000000001 0  0.319914 0.11839 0  0.340625 0.1 0  0.334448 0.133793 0  0.329687 0.108539 0  0.346259 0.118491 0  0.360334 0.173636 0  0.327539 0.205033 0  0.132812 0.288712 0  0.362436 0.278836 0  0.368105 0.259418 0  0.4125 0.41 0  0.329687 0.324017 0  0.329687 0.292306 0  0.285938 0.318952 0  0.417187 0.338778 0  0.324481 0.14148 0  0.351562 0.106771 0  0.40625 0.1 0  0.341028 0.168342 0  0.319221 0.190479 0  0.335292 0.184501 0  0.305563 0.20794 0  0.220313 0.31948 0  0.132812 0.332772 0  0.0865876 0.311259 0  0.0598995 0.302453 0  0.0906541 0.343255 0  0.353543 0.255837 0  0.36574 0.237633 0  0.405007 0.254279 0  0.275795 0.352123 0  0.4125 0 0  0.35493 0.137394 0  0.366563 0.120618 0  0.35917 0.205246 0  0.198438 0.318952 0  0.0626109 0.263892 0  0.40625 0.3 0  0.354809 0.155936 0  0.386512 0.146872 0  0.373101 0.159939 0  0.384375 0.1 0  0.343394 0.19929 0  0.350682 0.185683 0  0.368101 0.189748 0  0.344016 0.221511 0  0.391108 0.213329 0  0.376279 0.204783 0  0.398843 0.182768 0  0.375804 0.222746 0  0.390665 0.196958 0  0.394004 0.23518 0  0.359883 0.222828 0  0.419908 0.204359 0  0.404243 0.204783 0  0.412615 0.224526 0  0.20625 0.41 0  0.165625 0.325257 0  0.0347982 0.244954 0  0.379558 0.247154 0  0.34165 0.147603 0  0.372264 0.136992 0  0.388988 0.121989 0  0.373437 0.108554 0  0.351562 0.31948 0  0.391367 0.16527 0  0.399572 0.223324 0  0.452011 0.227371 0  0.40877 0.239392 0  0.431491 0.237337 0  0.421224 0.250459 0  0.449619 0.262098 0  0.418865 0.276779 0  0.437063 0.252274 0  0.415673 0.263227 0  0.430988 0.266772 0  0.402767 0.273419 0  0.452967 0.244883 0  0.428125 0.3 0  0.408502 0.286186 0  0.384375 0.3 0  0.392267 0.285807 0  0.465927 0.219339 0  0.43489 0.283846 0  0.376424 0.286289 0  0.625 0.3 0  0.473533 0.205186 0  0.461713 0.255517 0  0.5375 0.3 0  0.465725 0.235405 0  0.44631 0.201425 0  0.471875 0.3 0  0.494307 0.227729 0  0.459448 0.206736 0  0.462294 0.180792 0  0.478933 0.227536 0  0.486793 0.21381 0  0.486322 0.251373 0  0.50065 0.215318 0  0.54005 0.175389 0  0.474633 0.189893 0  0.512916 0.208697 0  0.49531 0.199967 0  0.475889 0.175275 0  0.625 0.1 0  0.459311 0.153933 0  0.513645 0.242704 0  0.392892 0.248539 0  0.374815 0.271913 0  0.365974 0.14871 0  0.395312 0.109184 0  0.417061 0.123981 0  0.483196 0.277003 0  0.381967 0.179632 0  0.429898 0.219374 0  0.433473 0.206165 0  0.43149 0.181038 0  0.444208 0.215487 0  0.472985 0.247309 0  0.49375 0.3 0  0.475579 0.262714 0  0.49916 0.274293 0  0.501175 0.184809 0  0.514164 0.225681 0  0.543648 0.214977 0  0.5341630000000001 0.23481 0  0.527396 0.216171 0  0.5375 0.1 0  0.534548 0.202315 0  0.561545 0.192513 0  0.5494289999999999 0.201221 0  0.570923 0.218346 0  0.412582 0.149833 0  0.489327 0.264745 0  0.502439 0.254775 0  0.462391 0.271166 0  0.496775 0.241732 0  0.5294410000000001 0.268606 0  0.482812 0.291099 0  0.46879 0.285038 0  0.452663 0.284065 0  0.51789 0.257882 0  0.53408 0.252026 0  0.560142 0.243543 0  0.545708 0.243474 0  0.547532 0.229019 0  0.55282 0.265323 0  0.398971 0.153424 0  0.400349 0.135684 0  0.410135 0.168145 0  0.428823 0.161323 0  0.415266 0.183779 0  0.329687 0.0810483 0  0.395312 0.0612217 0  0.373437 0.318952 0  0.439062 0.324017 0  0.561816 0.229354 0  0.585029 0.239287 0  0.431827 0.139854 0  0.446796 0.168929 0  0.351562 0.07598340000000001 0  0.395313 0.318944 0  0.54337 0.150762 0  0.460937 0.31948 0  0.418412 0.137529 0  0.428125 0.1 0  0.442783 0.152332 0  0.450742 0.134294 0  0.373437 0.0805201 0  0.384383 0.342558 0  0.482812 0.318952 0  0.429239 0.127457 0  0.444274 0.117405 0  0.426548 0.113815 0  0.49375 0.1 0  0.488954 0.113984 0  0.457973 0.121842 0  0.471621 0.137346 0  0.515625 0.325257 0  0.48125 0.41 0  0.417187 0.07598340000000001 0  0.496363 0.126778 0  0.479043 0.155715 0  0.439062 0.0805201 0  0.481795 0.126919 0  0.471875 0.1 0  0.489227 0.142159 0  0.515625 0.1 0  0.520062 0.147117 0  0.501244 0.161791 0  0.505431 0.112984 0  0.505344 0.14029 0  0.526563 0.119081 0  0.5181750000000001 0.131908 0  0.539868 0.136937 0  0.460937 0.108383 0  0.474242 0.114415 0  0.460937 0.0810483 0  0.487841 0.167168 0  0.526563 0.0612217 0  0.526563 0.106406 0  0.537619 0.112743 0  0.58125 0.1 0  0.559375 0.1 0  0.482812 0.08105569999999999 0  0.471883 0.0587655 0  0.570312 0.129396 0  0.548437 0.07598340000000001 0  0.504687 0.08105569999999999 0  0.49375 0.0470127 0  0.570312 0.112663 0  0.592798 0.12103 0  0.553986 0.12103 0  0.570312 0.0805201 0  0.48125 0 0  0.114787 0.2 0  0.160769 0.284765 0  0.175816 0.288361 0  0.162602 0.116048 0  0.154687 0.07598340000000001 0  0.176562 0.0805201 0  0.0598995 0.147547 0  0.307812 0.109924 0  0.291279 0.117157 0  0.278491 0.112989 0  0.285937 0.07598340000000001 0  0.307812 0.0805201 0  0.296928 0.196743 0  0.318141 0.218507 0  0.330208 0.227509 0  0.301397 0.225668 0  0.302706 0.241401 0  0.292574 0.21424 0  0.282762 0.230935 0  0.284351 0.244775 0  0.269553 0.23261 0  0.278572 0.217242 0  0.226924 0.342606 0  0.446928 0.185396 0  0.515625 0.3 0  0.504687 0.288879 0  0.515256 0.276534 0  0.529479 0.285328 0  0.58125 0.3 0  0.541969 0.272936 0  0.559375 0.3 0  0.556796 0.282529 0  0.543473 0.287206 0  0.581429 0.267774 0  0.566728 0.271171 0  0.570869 0.255585 0  0.577404 0.283865 0  0.603125 0.3 0  0.597531 0.28035 0  0.570312 0.338778 0  0.592188 0.292492 0  0.603513 0.256094 0  0.614063 0.286265 0  0.610329 0.27064 0  0.632708 0.251285 0  0.657223 0.261594 0  0.618789 0.257807 0  0.614188 0.22987 0  0.630935 0.265614 
[...]
<PointData  Vectors="v"> 
	<DataArray  type="Float64"  Name="v"  NumberOfComponents="3" format="ascii">
0.0 0.0 0.0 0.0 0.0 0.0 0.0 0.0 0.0 0.0 0.0 0.0 0.7972840188964626 -0.18860177055730537 0.0 0.8414396689877353 0.1988742100904663 0.0 1.0320188781313135 -0.05305462897537694 0.0 0.9629837330921398 0.009748488711779071 0.0 0.0 0.0 0.0 0.0 0.0 0.0 0.0 0.0 0.0 0.0 0.0 0.0 0.0 0.0 0.0 0.0 0.0 0.0 0.0 0.0 0.0 0.0 0.0 0.0 0.0 0.0 0.0 0.0 0.0 0.0 0.0 0.0 0.0 0.0 0.0 0.0 0.0 0.0 0.0 0.0 0.0 0.0 0.0 0.0 0.0 0.0 0.0 0.0 0.0 0.0 0.0 0.0 0.0 0.0 0.0 0.0 0.0 0.0 0.0 0.0 0.0 0.0 0.0 0.0 0.0 0.0 0.0 0.0 0.0 0.0 0.0 0.0 0.0 0.0 0.0 0.0 0.0 0.0 0.0 0.0 0.0 0.0 0.0 0.0 0.0 0.0 0.0 0.0 0.0 0.0 0.0 0.0 0.0 0.0 0.0 0.0 0.0 0.0 0.0 0.7648558402119975 -0.0019296882804074327 0.0 1.2186283504557445 0.11479050485058412 0.0 1.225743058641004 -0.1287455847013319 0.0 0.0 0.0 0.0 1.3000994923359612 -0.07479980178602876 0.0 1.3169976122163252 0.09235643531752095 0.0 0.0 0.0 0.0 0.0 0.0 0.0 1.0 0.0 0.0 0.0 0.0 0.0 0.0 0.0 0.0 0.0 0.0 0.0 0.8468936399128074 -0.228715315717352 0.0 1.1539531205058182 -0.3012553337800987 0.0 0.8682345629092179 0.22491177554401232 0.0 1.1695672622882887 0.3093973593018523 0.0 0.43212291466855157 -0.00473327920732036 0.0 0.16451862871036324 0.027841514609528335 0.0 0.17266923540233342 -0.022674455074326555 0.0 -0.04745654291709414 -0.059579321606208484 0.0 -0.0488806999435504 0.06846365763792031 0.0 0.338032111543204 -0.28232640083695193 0.0 0.8731573205640133 -0.6720911990772784 0.0 0.6508127842574665 -0.6938464833541091 0.0 1.2430659158529693 -0.6023030066192585 0.0 0.30435901701436163 0.0034355286509384236 0.0 0.334065381256865 0.2696514299041733 0.0 0.6530283429868222 0.6729794597762127 0.0 1.2214669869369863 0.603831099749579 0.0 0.28960476679534064 0.001279414116951359 0.0 1.2839798833478953 0.19411752100567511 0.0 -0.02067336406581171 0.05487720847848835 0.0 1.2718414818187735 -0.17480919180225915 0.0 -0.016802794998401357 -0.052759043042641826 0.0 -0.036105099337143724 -0.021313269467145225 0.0 1.2246054323593452 -0.39832582498865526 0.0 1.1281482027932832 -0.7302136776536805 0.0 0.8715465682530743 0.7782092335806249 0.0 1.2314743284344265 0.39915039991615286 0.0 0.9091331872223438 0.16487943502559851 0.0 -0.03763645411820036 0.07056302383616615 0.0 0.9181475099127965 -0.16032391861867681 0.0 -0.03840064056193988 -0.06713996193302316 0.0 -0.0306141443697531 0.026569214894708513 0.0 1.0611772131037687 0.72856584269734 0.0 0.448301752063089 0.5325658120119348 0.0 0.536200014000399 0.03225111383655072 0.0 0.07547426457049287 0.052197697520980864 0.0 0.5463742613448036 -0.03047645987604816 0.0 0.08184098718890716 -0.04723065894056319 0.0 -0.11057757150180073 0.013219780180423333 0.0 0.969550684565848 0.2984057297045053 0.0 1.2534443161743605 0.24647585915009218 0.0 1.2961757148798059 0.20447633739846738 0.0 1.2250579768447927 -0.24323987903710942 0.0 1.2922495388288913 -0.1960844825308863 0.0 1.3048661750502282 0.2547407173659989 0.0 1.3072380553564913 -0.24583220931300037 0.0 0.44949093933205275 -0.5498681525523474 0.0 0.8057913844454586 -0.13875181022704883 0.0 0.6789573720286641 -0.4188798303300584 0.0 0.8917589637309373 0.5920996704365388 0.0 0.8033214064459506 0.14072300079704247 0.0 0.684714099321876 0.41876197764243833 0.0 1.2853586334503995 -0.050182655577606684 0.0 0.19073732169494498 0.03467125244640417 0.0 0.2093858283058973 -0.026239039841154763 0.0 -0.08536999896861619 -0.02972695462228782 0.0 1.3029370468717103 0.42858688026340114 0.0 0.8764099746086408 0.0682251281540612 0.0 1.2969024027551554 -0.4329719677256004 0.0 0.8955120361262965 -0.059809657788392485 0.0 1.333260770349763 0.3604287279840285 0.0 1.2711585378341093 0.3462788746463212 0.0 1.3277845409001954 -0.35697430083127735 0.0 1.2606202712875534 -0.32619746882313116 0.0 0.5883041550167806 -0.1610825500432022 0.0 0.8030281126658166 -0.3291490689875618 0.0 1.032006836088035 0.5968288942375647 0.0 0.596482421604485 0.14977402517408467 0.0 0.8193038174876786 0.32791321764347786 0.0 0.8741134965631473 0.037917521726371514 0.0 0.9025685474283488 -0.02468606605270875 0.0 -0.04042592502571446 -0.05363934587093633 0.0 1.3109250421104643 0.1355768980853798 0.0 0.9337167897781117 -0.30475846660287714 0.0 1.2906412579423145 -0.11850449410524669 0.0 0.40836815315432123 0.029427448408490212 0.0 0.43910695516943477 -0.016377867385638113 0.0 -0.12750361328406795 -0.020205962904369875 0.0 1.0630032309520216 0.32346199843314855 0.0 0.9529744816016937 0.38020887399186293 0.0 1.0288900290459764 0.07185442689435798 0.0 0.9233564028177473 -0.047411045700118774 0.0 1.2682382397165195 0.05011303816733655 0.0 1.0328002797237086 -0.317355847992236 0.0 1.0976988043363352 -0.5573764010465085 0.0 0.9398708271103613 -0.3790762312596729 0.0 1.0116561857671293 -0.42410102129812227 0.0 0.9469206911879 -0.5372307305614719 0.0 0.8741554524521759 -0.4009052716440599 0.0 1.310936203249642 0.1578190262962585 0.0 1.3009213387306802 -0.14602317016791969 0.0 0.8560162877670655 -0.22986657639854463 0.0 0.8848084159516597 -0.30220703835695006 0.0 0.8585330999567428 -0.29402304971583637 0.0 0.853266376198692 -0.24506846754944636 0.0 0.8572938732460135 -0.24433070893764583 0.0 0.9018077715814397 -0.3082870594311277 0.0 1.3168183659484767 0.22855516738237414 0.0 1.1819589229441052 -0.04160736027220357 0.0 1.3280238036254801 0.2891132731711859 0.0 1.3061335268179612 -0.20920673234011114 0.0 0.0 0.0 0.0 0.0 0.0 0.0 1.3096268380105776 -0.2761601754490406 0.0 0.7196263714954212 -0.26689336119883067 0.0 0.8243923361974178 -0.20884151759368216 0.0 0.8736405359992936 -0.10939733534498593 0.0 0.8654531513843988 -0.16146088215516044 0.0 0.9375 0.0 0.0 0.7500000000000001 0.0 0.0 0.7278059008971483 0.2636407240400942 0.0 0.8283705044849414 0.19713223027819896 0.0 0.7499999999999999 0.0 0.0 0.8727002274803545 0.1252826298812372 0.0 0.9302009676258323 0.04131935042464125 0.0 0.8509666412191016 0.043802441981783354 0.0 -0.0962260217552714 -0.03430252098372867 0.0 0.006334159082077814 -0.03336165317970556 0.0 1.1388901504787268 0.5380765575094214 0.0 1.0335495448942622 0.4593180194902802 0.0 0.8841332628469503 0.23843901300459167 0.0 1.251944738209758 0.08704064420687474 0.0 1.3063619516342229 0.015167477170270649 0.0 0.29039904992217225 0.02481330369715115 0.0 1.3188141101701591 0.051121890013503486 0.0 0.8218592930416849 0.017628608819380737 0.0 1.232839723419645 0.056436654285535695 0.0 0.5923159203739988 -0.00747870417572212 0.0 0.5539205547707465 0.007465023575222501 0.0 0.0045242439790189 0.03735045828839427 0.0 1.0796462574519257 0.0023914018421633374 0.0 0.23920878723232672 0.02049711799884217 0.0 0.15509330428805773 0.01180774452799553 0.0 0.2734836865753727 0.011024606152177959 0.0 0.8022839039493566 -0.03795360354951903 0.0 0.5916047013383454 -0.017366786836771186 0.0 1.3022681642811822 -0.021061500880488405 0.0 0.6048211692491982 0.030230332510692026 0.0 1.2608332344819946 -0.08381151577070865 0.0 0.08632833588968702 -0.038343011627770915 0.0 1.1529279403329744 0.11591933675356941 0.0 0.8854879128196229 0.1748577252102677 0.0 0.695748247376685 -0.15579979544063527 0.0 1.044410359094744 -0.05724079904796905 0.0 1.01716042559763 -0.1836747830462496 0.0 0.8663572879781932 -0.17874295428148854 0.0 0.8778726830633181 -0.025747769582557718 0.0 0.43231785219834085 -0.012120458791660987 0.0 0.23736566078468135 -0.01548893591767944 0.0 1.2884564503276152 0.0013438161856175765 0.0 0.18226140902408844 -0.0022701047173119687 0.0 1.3007110569179587 -0.034924268958979175 0.0 0.1363261389352393 -0.01517809228778762 0.0 0.6057732437551613 0.01686243105056579 0.0 -0.0784580669811748 -0.017350674666222126 0.0 0.6406317349727796 0.004484806764346721 0.0 0.8846949640035333 0.29059846697283104 0.0 0.8883069723913359 0.4045760398922125 0.0 0.886862058476003 0.25725318942028513 0.0 0.9141588290523943 0.10710568365897766 0.0 0.867400031778985 0.21492554743832218 0.0 0.909554573594355 0.293736879971766 0.0 0.858621267191204 0.2232935527352777 0.0 0.8017873146819884 0.17364557658224244 0.0 0.8684113666728897 0.15604372862135368 0.0 0.0 0.0 0.0 0.8424361633717695 0.16977679553344827 0.0 0.8739338895385584 0.1675557605742296 0.0 1.1219130869684468 0.013031988871353933 0.0 1.2726084423235628 0.024225932624606122 0.0 1.0200767971900722 -0.018946364795945286 0.0 0.7442549436574358 -0.07099843769479178 0.0 1.2161351393529014 0.09005683344050022 0.0 0.7159478810783377 -0.16430864128914094 0.0 1.123092730584591 -0.11030363340814965 0.0 1.0962508719057729 0.01470895401003144 0.0 1.281718653733126 0.02890990265886119 0.0 0.6806115685872626 0.03457213580600475 0.0 1.2449562158469722 0.02105250195848417 0.0 1.082932898108338 0.0445746348443871 0.0 -0.07405208413626357 -0.000543519015456775 0.0 -0.1925749751803968 0.015899114413014052 0.0 0.9507716974658158 0.32688086865561555 0.0 1.0205136885913824 -0.057597969560336616 0.0 0.5302698826295662 -0.0369204669522119 0.0 0.0 0.0 0.0 1.2256660106434047 -0.00505684957800383 0.0 1.2596262654046853 -0.013037217208209164 0.0 1.2367489957103905 0.060558480654962867 0.0 1.1033718850092882 -0.0777921578856413 0.0 0.4502385808733037 0.012758138451280005 0.0 1.2421752392854462 0.04559225594950113 0.0 1.2449793519571952 0.08689167414349157 0.0 -0.019689686666897518 -0.006270272455660341 0.0 -0.1705517941248754 -0.00490238884995661 0.0 -0.16128663633019968 -0.006254802210599398 0.0 -0.15425283826488517 0.02280167887003184 0.0 1.1534145996096603 0.16588918242025033 0.0 0.7734823035674391 0.18351494659973247 0.0 0.7778346045791749 0.14688411955084624 0.0 0.7859818396866344 0.10252856976924163 0.0 0.618089466750899 0.1042320168625236 0.0 0.4173471610940252 -0.01623619753125789 0.0 0.08196043649098063 0.0012296170171162788 0.0 0.4825392251214679 -0.0667088674332159 0.0 0.9928933023660912 0.04280044465611322 0.0 0.0 0.0 0.0 0.6055500904879878 0.04361236510631285 0.0 1.0363660356884816 0.06408530622835945 0.0 -0.2225123539754462 0.010444142422976472 0.0 1.0809158322273544 0.2217914649225205 0.0 0.9014247290823985 0.1088434610729888 0.0 1.2633703646181267 -0.09935703945534373 0.0 0.1800035664434608 0.012737490025622949 0.0 0.4214624243054022 0.04548853486019059 0.0 0.13398086996267178 0.016063015743156904 0.0 1.2593581244698904 0.07086095397429253 0.0 -0.21524699446560697 0.008102362052112375 0.0 -0.17760258936048084 -0.0018151736626640998 0.0 -0.20796143217165214 0.0007836919814515437 0.0 -0.1244042267716997 0.02374166030381606 0.0 -0.1922070530810299 -0.0021074263732519588 0.0 -0.2320350075650589 0.004925834129793797 0.0 -0.1541642380716842 -0.00014755498507652853 0.0 -0.1110038579471098 0.004634059541821844 0.0 -0.23734916923751062 -0.002254744031981992 0.0 0.0774969463734792 -0.01970413054892009 0.0 -0.1123182976301807 0.015547126152323702 0.0 -0.228977595345219 -0.017617888388875246 0.0 -0.23406659190080736 -0.009077808861670958 0.0 -0.06311777862116123 -0.025668773722395958 0.0 0.0 0.0 0.0 0.9381237453560642 0.2292337135449535 0.0 0.9517389803204357 0.038719071160675904 0.0 0.27557274302174095 -0.024879973493543726 0.0 0.32814744715096794 0.016982363357208558 0.0 0.6423294328111067 0.05501242895716376 0.0 1.0183490378258768 0.07944503499629717 0.0 1.217704030617299 0.0676016235872488 0.0 1.252271862610809 -0.028695619301313726 0.0 0.06894681538048061 0.014911981739485167 0.0 -0.08987117237695656 -0.012869146379477614 0.0 0.03283246053518392 -0.06311466605956816 0.0 0.17502299602643928 -0.04175843538889489 0.0 0.1760095676373795 -0.0612631752441853 0.0 0.42899355186633187 -0.0761188925220857 0.0 0.7455244960076165 -0.12452263588657765 0.0 1.0132840068140498 -0.11510374851180306 0.0 0.5027613572939693 -0.0959288122586924 0.0 0.7151759397567774 -0.09538741146446307 0.0 0.8210065423913413 -0.11572628367293475 0.0 0.9318837475834921 -0.09711019115832221 0.0 0.3707697526657572 -0.09442487198963899 0.0 1.245329389987894 -0.11616500151802461 0.0 1.1586655038735498 -0.10850609676364882 0.0 1.2777356714790575 -0.07556385573083815 0.0 1.1561615242733636 -0.09102290219767693 0.0 -0.06467498060004684 -0.05980750187153886 0.0 1.130237946170601 -0.1306483782248626 0.0 1.1639713426611318 -0.07546677654789191 0.0 1.1057880591507199 -0.08433570049621968 0.0 -0.17107825285350461 -0.042228624290790696 0.0 0.6196498086465625 -0.12029583351283189 0.0 1.148015402021933 -0.12157831724703975 0.0 0.20007676735199165 -0.08598654056967485 0.0 -0.21366078043377343 -0.02775188423308736 0.0 1.204938792172864 -0.13427676543704542 0.0 0.10976414640397615 -0.0844600187330217 0.0 -0.18486197575189545 -0.040035138347064486 0.0 -0.05159080277875043 0.0014326120846169632 0.0 0.07841828510530918 -0.07960284601523832 0.0 -0.09454222199557817 -0.059010761323199865 0.0 0.5720617635168758 -0.12355273345085892 0.0 -0.05545308807098037 -0.06337616598146703 0.0 0.23784449866850882 0.051730369645323286 0.0 -0.12870375024425249 -0.016669172391739765 0.0 -0.085399834306256 -0.050311993929558776 0.0 -0.13813590694172245 -0.0353513400720545 0.0 0.06047793433393348 0.015701550058036137 0.0 1.0646718099187187 0.11349118313410181 0.0 0.42930018408836257 0.06242783237094129 0.0 0.432447868576285 -0.11054300566022228 0.0 0.3302954652132055 -0.042056422727999615 0.0 0.8603317366322729 -0.06358254687271789 0.0 0.34410214651891996 0.030685254543808466 0.0 1.2023749683985057 0.08583712029941745 0.0 0.9970993121130114 0.09772458361868665 0.0 1.0414172986221713 -0.1473080226335294 0.0 -0.13073591343212987 0.0010505509841701186 0.0 -0.1110180893858162 -0.03501912109544169 0.0 -0.2139249011306427 -0.02582495657568827 0.0 -0.10517249906582263 -0.00017511384080704849 0.0 -0.13775946794807378 -0.04116905764094353 0.0 0.4607576079385017 -0.11216299301171134 0.0 1.1843754556377026 -0.1326452968523639 0.0 0.7940878820316712 -0.13678957988144344 0.0 1.0088755039925423 -0.14610436122379156 0.0 -0.01584061600767741 0.0015130862799083201 0.0 0.10952167991204022 -0.08095677630215974 0.0 0.023501188977533997 -0.05042469068044783 0.0 0.3085787099967709 -0.09201060713811474 0.0 0.0034732529743931647 -0.060453310717831193 0.0 1.1563827817346732 0.14342819755315567 0.0 -0.05460863701910878 -0.027330439160165764 0.0 0.0661502002792336 0.017035871348595955 0.0 -0.016050166526736423 -0.01562701734177998 0.0 0.11603659166717153 -0.040269027998825105 0.0 0.40964921044367614 0.05110354420408084 0.0 0.8473947087455778 -0.1413046583840241 0.0 0.6659752073281309 -0.12967618853606105 0.0 0.943381844870686 -0.1410872806926153 0.0 0.38439124741332953 -0.10897210564173507 0.0 0.9367727336267488 -0.13364120707453708 0.0 1.1700718414518023 -0.1426452560410209 0.0 1.1351956512486718 -0.1451967212371124 0.0 1.1292304032450824 -0.1392360000304487 0.0 0.7457448569273992 -0.13008436588595326 0.0 0.6503061553757588 -0.11726357984528812 0.0 0.5187258277452812 -0.09161157665485252 0.0 0.4961457005129417 -0.09966213775528357 0.0 0.22530472944608057 -0.07590326896570193 0.0 0.8998915778031434 -0.11965141081944305 0.0 0.30302357577223493 0.03748391056503372 0.0 0.7203328202545558 0.07302424600295401 0.0 0.04863923630171939 0.015186531384514711 0.0 0.20518318934078167 0.03290946000862033 0.0 -0.1525413182418434 -0.001686035970596282 0.0 1.2253819032368924 0.012372767330802368 0.0 1.080573193237842 0.061419036421341035 0.0 1.2500809763825402 -0.054918315970353335 0.0 1.178485686126819 -0.10315029996940896 0.0 0.2565805184429506 -0.0678768098667867 0.0 0.47507456703329437 -0.0698676020507271 0.0 0.6786776285788396 0.08112006528500182 0.0 0.1021427912645328 0.021652518906999037 0.0 1.192785722857244 0.03410300731062018 0.0 1.2361287942656463 -0.0761276420741951 0.0 0.7118743922890121 0.1214230772626895 0.0 1.1789499736951359 -0.11439843115104956 0.0 0.7057264551874006 0.07824534642867492 0.0 1.2322226493574024 0.10280893092422272 0.0 0.4227308173200624 0.05851520664160936 0.0 0.8359932335936893 0.10231913117337095 0.0 1.2152028056316326 0.05328853396502424 0.0 1.0990035773834819 -0.056446598362132824 0.0 1.1590996264174025 -0.11843700008723078 0.0 0.942300548984796 0.09919562850142408 0.0 1.1155958375326256 0.1161656356677001 0.0 1.1559303696709213 0.10727818752684057 0.0 1.19259690487646 0.13460363002249906 0.0 1.156634765880046 0.13946516893484703 0.0 1.0661582356912396 0.12120123433993235 0.0 0.811555252150231 0.10798178429328771 0.0 1.0879036028901712 -0.10755436451193807 0.0 0.0 0.0 0.0 1.1690261470200982 0.08253735411178076 0.0 1.0289919416687494 0.13669779608765584 0.0 0.4430369475494153 0.06810515490542257 0.0 1.1799083090555516 0.09873095144148684 0.0 1.0136822438963804 0.12988297280946554 0.0 1.2067470803216997 0.12466718206149421 0.0 0.75230676610222 0.1080859096104088 0.0 1.1747937882901345 0.14055531559262488 0.0 0.7254894915811813 0.11581072799788646 0.0 0.3799896026153737 0.06511939704576236 0.0 1.1589305826010485 0.14554768100289758 0.0 0.8232780882231364 0.12212950526138851 0.0 1.1215940253461205 0.15257074484767064 0.0 0.9815031649366134 0.14315242786473054 0.0 0.9357666798689144 0.14573164431159416 0.0 1.1935059009805158 0.12511831476871246 0.0 1.1525933786410212 0.13187013393777394 0.0 1.1632173264683858 0.11038768356030064 0.0 0.23570198748229132 0.04132172313803101 0.0 0.9383109589872602 0.09665850252143314 0.0 1.1680289900512086 0.14862727257553038 0.0 1.149048803208627 0.1531749158831806 0.0 1.1111724452067564 0.13733515170491475 0.0 1.1342133900696119 0.14354978515772268 0.0 1.1397059967535748 0.11611015596324537 0.0 1.0027268973763308 0.08500509256904226 0.0 1.0472404063470615 0.15578807402399283 0.0 1.0313431504250061 0.11557273298391603 0.0 1.1216832693459098 0.11976933714875497 0.0 0.8255551928329702 0.07437646182380098 0.0 1.13015596715022 0.1515339497843514 0.0 1.0960398095752526 0.1501852474862875 0.0 1.1081651477168877 0.1567607471492757 0.0 1.0342157082611894 0.11731853251345706 0.0 0.0 0.0 0.0 0.6487190475142525 -0.006247379303144289 0.0 1.0916180335343244 0.4102781908468637 0.0 1.1837275802607037 0.38689770693193754 0.0 1.097525159276033 -0.4021080188755211 0.0 0.859139036983173 -0.20666194829295045 0.0 0.9705973921997475 -0.22445237171783258 0.0 0.893665343143875 -0.0832094799877536 0.0 1.254673377229661 -0.01180799634933248 0.0 1.1626406752522547 -0.024418676305506468 0.0 1.2473276928550106 -0.054598262512511216 0.0 1.1761040206468603 -0.03749801070597677 0.0 1.217040804461814 -0.011798801946591659 0.0 -0.14320149055828216 -0.00014917997933868872 0.0 -0.1305453649909203 0.03356773846311972 0.0 -0.0679228169882775 0.03099037637322276 0.0 -0.07441586041219961 0.04711931433622371 0.0 0.07003008634920449 0.04312167812121295 0.0 -0.11420525982503732 0.03796091279879944 0.0 -0.03653335220571127 0.06363692993911181 0.0 0.09090990732383902 0.049542689650558795 0.0 -0.03209750663956833 0.07408876653111256 0.0 -0.08039517807422457 0.0529779480385259 0.0 0.9892445762690657 0.11926248066170415 0.0 -0.1328416502594786 -0.007650050922749076 0.0 1.1652750666347813 -0.1282835708132733 0.0 1.144365560173492 -0.1415142339006344 0.0 1.0374970132751806 -0.14105547934563878 0.0 1.1117463138236505 -0.13323706494554763 0.0 1.1227208107597038 -0.10063114208064344 0.0 0.9977060867497142 -0.12839784725880735 0.0 1.1338708790983796 -0.11005202038687904 0.0 1.0857131638022268 -0.11933998657383414 0.0 1.1157986305063943 -0.124835794622986 0.0 0.947375578353624 -0.10240245170807094 0.0 0.9833341954201457 -0.11253982772725996 0.0 0.7563006956874754 -0.10029803506865212 0.0 1.0901243634291797 -0.10831466495767172 0.0 1.1126438079600054 -0.09193382287700498 0.0 1.0692973837752908 -0.09753097161720932 0.0 0.9474591087658809 -0.07805099677527144 0.0 1.116026356929571 -0.09797361673258415 0.0 0.7978134892307567 -0.0809790939979352 0.0 1.0977452030262806 -0.09022483533814198 0.0 0.9937769050743233 -0.08890957496456205 0.0 0.7580269834630501 -0.06268203264045404 0.0 0.9287611691594968 -0.06843155987543471 0.0 0.8401276305711245 -0.0754133557249003 0.0 0.36326863468071 -0.03394828028212025 0.0 0.9524444053373087 -0.0778937070645423 0.0 0.6032471074930836 -0.05553810493280511 0.0 1.0940713661183372 -