<?xml version="1.0"?>
<VTKFile type="UnstructuredGrid"  version="0.1"  >
<UnstructuredGrid>
<Piece  NumberOfPoints="1289" NumberOfCells="2413">
<Points>
<DataArray  type="Float64"  NumberOfComponents="3"  format="ascii">0 0 0  0 0.41 0  2.2 0.41 0  2.2 0 0  0.1 0.1 0  0.1 0.3 0  0.8 0.3 0  0.8 0.1 0  0.25 0.2 0  0.248976 0.210065 0  0.245948 0.219718 0  0.241038 0.228563 0  0.234448 0.23624 0  0.226448 0.242432 0  0.217365 0.246888 0  0.207571 0.249423 0  0.197468 0.249936 0  0.187467 0.248404 0  0.17798 0.24489 0  0.169395 0.239539 0  0.162062 0.232569 0  0.156283 0.224265 0  0.152293 0.214968 0  0.150257 0.205058 0  0.150257 0.194942 0  0.152293 0.185032 0  0.156283 0.175735 0  0.162062 0.167431 0  0.169395 0.160461 0  0.17798 0.15511 0  0.187467 0.151596 0  0.197468 0.150064 0  0.207571 0.150577 0  0.217365 0.153112 0  0.226448 0.157568 0  0.234448 0.16376 0  0.241038 0.171437 0  0.245948 0.180282 0  0.248976 0.189935 0  1.1 0 0  1.1 0.41 0  0.1 0.2 0  0.45 0.1 0  0.45 0.3 0  0.55 0 0  0.275 0.1 0  0.275 0.3 0  0.275 0 0  0.55 0.41 0  0 0.205 0  0.825 0 0  0.825 0.41 0  0.275 0.41 0  0.1 0.15 0  0.1875 0.1 0  0.1 0.25 0  0.1875 0.3 0  0.132322 0.2 0  0.241426 0.253518 0  0.241426 0.146482 0  0.264574 0.17974 0  0.264574 0.22026 0  0.138434 0.187348 0  0.153372 0.150948 0  0.148413 0.164094 0  0.176495 0.136535 0  0.22768 0.143571 0  0.138434 0.212652 0  0.148413 0.235906 0  0.176495 0.263465 0  0.22768 0.256429 0  0.23125 0.3 0  0.24769 0.24094 0  0.23125 0.1 0  0.24769 0.15906 0  0.26253 0.193641 0  0.190482 0.137872 0  0.166753 0.146661 0  0.157737 0.244461 0  0.190482 0.262128 0  0.203107 0.261264 0  0.253635 0.22977 0  0.203107 0.138736 0  0.253635 0.17023 0  0.261028 0.206206 0  0.167707 0.251809 0  0.143629 0.224191 0  0.215302 0.2591 0  0.270465 0.245894 0  0.215302 0.1409 0  0.270465 0.154106 0  0.284052 0.202587 0  0.14375 0.3 0  0.209375 0.3 0  0.225966 0.278501 0  0.209375 0.1 0  0.225966 0.121499 0  0.211613 0.273759 0  0.211613 0.126241 0  0.143629 0.175809 0  0.1 0.175 0  0.133484 0.164832 0  0.144491 0.249539 0  0.1 0.225 0  0.133484 0.235168 0  0.3625 0.3 0  0.25691 0.253381 0  0.25691 0.146619 0  0.277205 0.188698 0  0.184724 0.275712 0  0.237372 0.268285 0  0.184724 0.124288 0  0.237372 0.131715 0  0.197578 0.273149 0  0.193656 0.286994 0  0.197578 0.126851 0  0.193656 0.113006 0  0.122953 0.187671 0  0.118362 0.153758 0  0.155372 0.258107 0  0.122953 0.212329 0  0.118362 0.246242 0  0.276394 0.27264 0  0.276394 0.12736 0  0.280965 0.170013 0  0.253125 0.3 0  0.14375 0.1 0  0.253125 0.1 0  0.269489 0.26014 0  0.269489 0.13986 0  0.303639 0.184297 0  0.165625 0.3 0  0.134742 0.273113 0  0.257831 0.274737 0  0.255279 0.128499 0  0.3625 0.1 0  0.165625 0.1 0  0.162031 0.132368 0  0.134955 0.126405 0  0.149334 0.125568 0  0.142936 0.139597 0  0.12695 0.140259 0  0.242514 0.285501 0  0.242514 0.114499 0  0.1 0.125 0  0.117483 0.12555 0  0.11154 0.139776 0  0.121875 0.1 0  0.109143 0.1125 0  0.126805 0.114 0  0.220313 0.29129 0  0.351562 0.287369 0  0.207222 0.2866 0  0.220312 0.10871 0  0.1375 0 0  0.20625 0 0  0.207222 0.1134 0  0.11722 0.17118 0  0.1 0.1625 0  0.0778409 0.16875 0  0.0862762 0.15625 0  0 0.15375 0  0 0.1025 0  0.11722 0.22882 0  0.1 0.2375 0  0 0.3075 0  0.0862762 0.23125 0  0.0598995 0.222547 0  0.0860223 0.2125 0  0.289584 0.181469 0  0.300267 0.16446 0  0.163832 0.269071 0  0.149597 0.273325 0  0.1 0.275 0  0.268498 0.285953 0  0.31875 0.3 0  0.294154 0.254672 0  0.296875 0.3 0  0.293558 0.271845 0  0.285095 0.286799 0  0.324298 0.264316 0  0.307866 0.263745 0  0.317093 0.234901 0  0.315485 0.281219 0  0.316547 0.250625 0  0.344693 0.243731 0  0.331592 0.251147 0  0.35129 0.270663 0  0.338689 0.263683 0  0.340625 0.3 0  0.249849 0.264383 0  0.265097 0.11422 0  0.284688 0.156136 0  0.242188 0.324017 0  0.0856613 0.2625 0  0.132812 0.0612217 0  0.264062 0.0612217 0  0.198437 0.07598340000000001 0  0.0860223 0.1375 0  0.0794526 0.191089 0  0.285228 0.140397 0  0.298655 0.148737 0  0.31875 0.1 0  0.327335 0.15374 0  0.296875 0.1 0  0.312289 0.155283 0  0.313348 0.135607 0  0.321802 0.173916 0  0.298433 0.134116 0  0.112124 0.2625 0  0.127526 0.259083 0  0.121875 0.3 0  0.0682687 0.241503 0  0.1 0.2875 0  0.117762 0.28125 0  0.107813 0.3 0  0.103906 0.313849 0  0.0778409 0.28125 0  0.1375 0.41 0  0.0862762 0.29375 0  0.08886860000000001 0.24375 0  0.307812 0.338778 0  0.307812 0.292227 0  0.33216 0.279164 0  0.387888 0.266414 0  0.264063 0.31948 0  0.110937 0.07598340000000001 0  0.242188 0.07598340000000001 0  0.319914 0.11839 0  0.340625 0.1 0  0.334448 0.133793 0  0.329687 0.108539 0  0.346259 0.118491 0  0.360334 0.173636 0  0.327539 0.205033 0  0.132812 0.288712 0  0.362436 0.278836 0  0.368105 0.259418 0  0.4125 0.41 0  0.329687 0.324017 0  0.329687 0.292306 0  0.285938 0.318952 0  0.417187 0.338778 0  0.324481 0.14148 0  0.351562 0.106771 0  0.40625 0.1 0  0.341028 0.168342 0  0.319221 0.190479 0  0.335292 0.184501 0  0.305563 0.20794 0  0.220313 0.31948 0  0.132812 0.332772 0  0.0865876 0.311259 0  0.0598995 0.302453 0  0.0906541 0.343255 0  0.353543 0.255837 0  0.36574 0.237633 0  0.405007 0.254279 0  0.275795 0.352123 0  0.4125 0 0  0.35493 0.137394 0  0.366563 0.120618 0  0.35917 0.205246 0  0.198438 0.318952 0  0.0626109 0.263892 0  0.40625 0.3 0  0.354809 0.155936 0  0.386512 0.146872 0  0.373101 0.159939 0  0.384375 0.1 0  0.343394 0.19929 0  0.350682 0.185683 0  0.368101 0.189748 0  0.344016 0.221511 0  0.391108 0.213329 0  0.376279 0.204783 0  0.398843 0.182768 0  0.375804 0.222746 0  0.390665 0.196958 0  0.394004 0.23518 0  0.359883 0.222828 0  0.419908 0.204359 0  0.404243 0.204783 0  0.412615 0.224526 0  0.20625 0.41 0  0.165625 0.325257 0  0.0347982 0.244954 0  0.379558 0.247154 0  0.34165 0.147603 0  0.372264 0.136992 0  0.388988 0.121989 0  0.373437 0.108554 0  0.351562 0.31948 0  0.391367 0.16527 0  0.399572 0.223324 0  0.452011 0.227371 0  0.40877 0.239392 0  0.431491 0.237337 0  0.421224 0.250459 0  0.449619 0.262098 0  0.418865 0.276779 0  0.437063 0.252274 0  0.415673 0.263227 0  0.430988 0.266772 0  0.402767 0.273419 0  0.452967 0.244883 0  0.428125 0.3 0  0.408502 0.286186 0  0.384375 0.3 0  0.392267 0.285807 0  0.465927 0.219339 0  0.43489 0.283846 0  0.376424 0.286289 0  0.625 0.3 0  0.473533 0.205186 0  0.461713 0.255517 0  0.5375 0.3 0  0.465725 0.235405 0  0.44631 0.201425 0  0.471875 0.3 0  0.494307 0.227729 0  0.459448 0.206736 0  0.462294 0.180792 0  0.478933 0.227536 0  0.486793 0.21381 0  0.486322 0.251373 0  0.50065 0.215318 0  0.54005 0.175389 0  0.474633 0.189893 0  0.512916 0.208697 0  0.49531 0.199967 0  0.475889 0.175275 0  0.625 0.1 0  0.459311 0.153933 0  0.513645 0.242704 0  0.392892 0.248539 0  0.374815 0.271913 0  0.365974 0.14871 0  0.395312 0.109184 0  0.417061 0.123981 0  0.483196 0.277003 0  0.381967 0.179632 0  0.429898 0.219374 0  0.433473 0.206165 0  0.43149 0.181038 0  0.444208 0.215487 0  0.472985 0.247309 0  0.49375 0.3 0  0.475579 0.262714 0  0.49916 0.274293 0  0.501175 0.184809 0  0.514164 0.225681 0  0.543648 0.214977 0  0.5341630000000001 0.23481 0  0.527396 0.216171 0  0.5375 0.1 0  0.534548 0.202315 0  0.561545 0.192513 0  0.5494289999999999 0.201221 0  0.570923 0.218346 0  0.412582 0.149833 0  0.489327 0.264745 0  0.502439 0.254775 0  0.462391 0.271166 0  0.496775 0.241732 0  0.5294410000000001 0.268606 0  0.482812 0.291099 0  0.46879 0.285038 0  0.452663 0.284065 0  0.51789 0.257882 0  0.53408 0.252026 0  0.560142 0.243543 0  0.545708 0.243474 0  0.547532 0.229019 0  0.55282 0.265323 0  0.398971 0.153424 0  0.400349 0.135684 0  0.410135 0.168145 0  0.428823 0.161323 0  0.415266 0.183779 0  0.329687 0.0810483 0  0.395312 0.0612217 0  0.373437 0.318952 0  0.439062 0.324017 0  0.561816 0.229354 0  0.585029 0.239287 0  0.431827 0.139854 0  0.446796 0.168929 0  0.351562 0.07598340000000001 0  0.395313 0.318944 0  0.54337 0.150762 0  0.460937 0.31948 0  0.418412 0.137529 0  0.428125 0.1 0  0.442783 0.152332 0  0.450742 0.134294 0  0.373437 0.0805201 0  0.384383 0.342558 0  0.482812 0.318952 0  0.429239 0.127457 0  0.444274 0.117405 0  0.426548 0.113815 0  0.49375 0.1 0  0.488954 0.113984 0  0.457973 0.121842 0  0.471621 0.137346 0  0.515625 0.325257 0  0.48125 0.41 0  0.417187 0.07598340000000001 0  0.496363 0.126778 0  0.479043 0.155715 0  0.439062 0.0805201 0  0.481795 0.126919 0  0.471875 0.1 0  0.489227 0.142159 0  0.515625 0.1 0  0.520062 0.147117 0  0.501244 0.161791 0  0.505431 0.112984 0  0.505344 0.14029 0  0.526563 0.119081 0  0.5181750000000001 0.131908 0  0.539868 0.136937 0  0.460937 0.108383 0  0.474242 0.114415 0  0.460937 0.0810483 0  0.487841 0.167168 0  0.526563 0.0612217 0  0.526563 0.106406 0  0.537619 0.112743 0  0.58125 0.1 0  0.559375 0.1 0  0.482812 0.08105569999999999 0  0.471883 0.0587655 0  0.570312 0.129396 0  0.548437 0.07598340000000001 0  0.504687 0.08105569999999999 0  0.49375 0.0470127 0  0.570312 0.112663 0  0.592798 0.12103 0  0.553986 0.12103 0  0.570312 0.0805201 0  0.48125 0 0  0.114787 0.2 0  0.160769 0.284765 0  0.175816 0.288361 0  0.162602 0.116048 0  0.154687 0.07598340000000001 0  0.176562 0.0805201 0  0.0598995 0.147547 0  0.307812 0.109924 0  0.291279 0.117157 0  0.278491 0.112989 0  0.285937 0.07598340000000001 0  0.307812 0.0805201 0  0.296928 0.196743 0  0.318141 0.218507 0  0.330208 0.227509 0  0.301397 0.225668 0  0.302706 0.241401 0  0.292574 0.21424 0  0.282762 0.230935 0  0.284351 0.244775 0  0.269553 0.23261 0  0.278572 0.217242 0  0.226924 0.342606 0  0.446928 0.185396 0  0.515625 0.3 0  0.504687 0.288879 0  0.515256 0.276534 0  0.529479 0.285328 0  0.58125 0.3 0  0.541969 0.272936 0  0.559375 0.3 0  0.556796 0.282529 0  0.543473 0.287206 0  0.581429 0.267774 0  0.566728 0.271171 0  0.570869 0.255585 0  0.577404 0.283865 0  0.603125 0.3 0  0.597531 0.28035 0  0.570312 0.338778 0  0.592188 0.292492 0  0.603513 0.256094 0  0.614063 0.286265 0  0.610329 0.27064 0  0.632708 0.251285 0  0.657223 0.261594 0  0.618789 0.257807 0  0.614188 0.22987 0  0.630935 0.265614 
[...]
<PointData  Vectors="v"> 
	<DataArray  type="Float64"  Name="v"  NumberOfComponents="3" format="ascii">
0.0 0.0 0.0 0.0 0.0 0.0 0.0 0.0 0.0 0.0 0.0 0.0 0.7960876988113162 -0.18695760061942088 0.0 0.8427652674776412 0.20010032889471105 0.0 0.908125495579739 0.019609755643183797 0.0 1.0522890766902986 0.08081648408350654 0.0 0.0 0.0 0.0 0.0 0.0 0.0 0.0 0.0 0.0 0.0 0.0 0.0 0.0 0.0 0.0 0.0 0.0 0.0 0.0 0.0 0.0 0.0 0.0 0.0 0.0 0.0 0.0 0.0 0.0 0.0 0.0 0.0 0.0 0.0 0.0 0.0 0.0 0.0 0.0 0.0 0.0 0.0 0.0 0.0 0.0 0.0 0.0 0.0 0.0 0.0 0.0 0.0 0.0 0.0 0.0 0.0 0.0 0.0 0.0 0.0 0.0 0.0 0.0 0.0 0.0 0.0 0.0 0.0 0.0 0.0 0.0 0.0 0.0 0.0 0.0 0.0 0.0 0.0 0.0 0.0 0.0 0.0 0.0 0.0 0.0 0.0 0.0 0.0 0.0 0.0 0.0 0.0 0.0 0.0 0.0 0.0 0.0 0.0 0.0 0.7649527880624657 0.0014368260239327009 0.0 1.2586501654712354 0.17287770891707196 0.0 1.157468864248667 -0.08377228498405062 0.0 0.0 0.0 0.0 1.2976319149850313 -0.08170849552620144 0.0 1.3199213625913497 0.07692706700333837 0.0 0.0 0.0 0.0 0.0 0.0 0.0 1.0 0.0 0.0 0.0 0.0 0.0 0.0 0.0 0.0 0.0 0.0 0.0 0.8458726625813586 -0.22587608444239 0.0 1.1509464313168802 -0.3023688307658062 0.0 0.8695287366378971 0.22752772051420173 0.0 1.1732249278843794 0.3059300234330849 0.0 0.43224978408041026 -0.001158057112236792 0.0 0.17521322511701762 0.027350948098621094 0.0 0.16734955135720234 -0.021491872056930806 0.0 -0.04617823032460105 -0.04697038827009105 0.0 -0.050387895939056244 0.08192109517643256 0.0 0.33736619784237903 -0.2784760003150893 0.0 0.8706456782243449 -0.6697251020747059 0.0 0.6487207070010018 -0.6905295741225173 0.0 1.2390535457217424 -0.60134407005025 0.0 0.2979104621277355 0.002528360566507928 0.0 0.33496461649770193 0.27363061446425785 0.0 0.6556418820843284 0.6765337541986347 0.0 1.227184446152204 0.6043544129998246 0.0 0.3024541835079391 -0.0013479918288290364 0.0 1.287033017660392 0.18543748895524753 0.0 -0.018082034414356893 0.06091174129508639 0.0 1.2691220625754247 -0.17840054722143533 0.0 -0.018137651241253352 -0.04599742757580355 0.0 -0.03513179699307081 -0.005099936970225762 0.0 1.2177928546442007 -0.39731276893779377 0.0 1.1240165891190366 -0.7279268416853053 0.0 0.875622282445386 0.7816411011792224 0.0 1.2429365627630733 0.4002822723481773 0.0 0.9238434079638315 0.16477838336109724 0.0 -0.03887568177930404 0.08268472282421342 0.0 0.9099957932016942 -0.1601683215336442 0.0 -0.03651361448076732 -0.055223320461915956 0.0 -0.0316948656334673 0.04359144602508677 0.0 1.0667548390627397 0.7315656164564279 0.0 0.4503130048100424 0.5365963004257887 0.0 0.5509101501770169 0.030657716039296085 0.0 0.09067482235458955 0.056901747894702245 0.0 0.5386260624046626 -0.03108325232221163 0.0 0.07235669327424676 -0.03990661296544363 0.0 -0.11163401293185088 0.015843234501537014 0.0 0.9721489638821813 0.29814685132724233 0.0 1.257272074407333 0.24024927455147946 0.0 1.307823135585301 0.19818360411472366 0.0 1.2221476728315968 -0.24566533058278295 0.0 1.2858788894105884 -0.1986763732477868 0.0 1.31651076050097 0.25025166826012135 0.0 1.3006645765359681 -0.24767445686510106 0.0 0.44779976968938495 -0.5460407875338888 0.0 0.8052408338008309 -0.135424785287125 0.0 0.6774540937753083 -0.41555354983811943 0.0 0.8950424689213391 0.5947258449148132 0.0 0.8041304918936005 0.14396893653949636 0.0 0.6867554611819047 0.4221733756308564 0.0 1.259846419871589 -0.0788083569956311 0.0 0.20774878026706806 0.0369556174844304 0.0 0.1991978469735187 -0.022061771322267068 0.0 -0.084835866895741 -0.022496514147192725 0.0 1.3092436861412977 0.4260932424512508 0.0 0.8988233288597799 0.06438108156429431 0.0 1.292779613771557 -0.43358324031909534 0.0 0.8841624530537007 -0.06097853238203875 0.0 1.3415279578439967 0.35684793651863417 0.0 1.2763147983799537 0.34234267844198996 0.0 1.322763846069578 -0.35832401103525363 0.0 1.2570356974387744 -0.3276822400984522 0.0 0.5877182821289322 -0.1574052343194358 0.0 0.8017089584613973 -0.3261541452597403 0.0 1.0362890623128733 0.5984181493064028 0.0 0.5973498021097188 0.15346262507381034 0.0 0.821035503554704 0.3307697797724658 0.0 0.9097117916728882 0.029346507663659507 0.0 0.8828225231624502 -0.02761108149515182 0.0 -0.04272682454135432 -0.0493760220502729 0.0 1.3136881366673037 0.12387693738941633 0.0 0.9314898432326868 -0.30390167931409634 0.0 1.2881430367138766 -0.1235238312851746 0.0 0.4373404629396802 0.028471715614925938 0.0 0.421485282674752 -0.014302879142460057 0.0 -0.12652273005247378 -0.03415975411717832 0.0 1.066199023354979 0.3217620975332282 0.0 0.9557350797618096 0.38146100841163477 0.0 1.0551519872127666 0.06543330969941172 0.0 0.9095072952096549 -0.04865739040909426 0.0 1.2885065849935435 0.0381385380651189 0.0 1.030123542114377 -0.31742071703338004 0.0 1.0944824727711513 -0.5561156588288149 0.0 0.9376454362880843 -0.37732416361003057 0.0 1.0089604422894354 -0.42287826138642937 0.0 0.9444156615169336 -0.5349471794598267 0.0 0.8723331296568864 -0.3983763940132769 0.0 1.3204966924979524 0.1485823156253403 0.0 1.2953546109426333 -0.14967451119983158 0.0 0.8548090622531803 -0.22759581686001512 0.0 0.8831301979829259 -0.3001125367787702 0.0 0.8571074248139205 -0.2914847243242594 0.0 0.8515014713513599 -0.2437374220191284 0.0 0.8557954967624246 -0.24248417281905563 0.0 0.8998959928523623 -0.30667387186201855 0.0 1.3216851935917202 0.22092708408876366 0.0 1.1909377553935234 -0.08057244551266415 0.0 1.3338347691847299 0.28340882589498756 0.0 1.3027819763645092 -0.21247433918723047 0.0 0.0 0.0 0.0 0.0 0.0 0.0 1.3059052848388555 -0.278513276508127 0.0 0.7187696245494023 -0.26352476443749895 0.0 0.8235527511821837 -0.2057751609969688 0.0 0.8733070032586324 -0.10649829376634155 0.0 0.8647984807595676 -0.158619382200043 0.0 0.9375 0.0 0.0 0.7500000000000001 0.0 0.0 0.7289692266241374 0.2669837802722688 0.0 0.8294598652926397 0.20008817553706715 0.0 0.7499999999999999 0.0 0.0 0.8733736381530536 0.12821715947028875 0.0 0.9304756231623493 0.043699644408824144 0.0 0.851267343001916 0.046936725111337285 0.0 -0.09574610233038325 -0.03559173208127796 0.0 0.0031356455037790153 -0.040973829728795014 0.0 1.1435427564229088 0.5384155551535612 0.0 1.0371261246838681 0.46012331583865684 0.0 0.8855099807050203 0.24041175523116587 0.0 1.2682102106712425 0.07463181182330243 0.0 1.3037301537833417 -0.010457998487664533 0.0 0.32595315576039424 0.01661508903974491 0.0 1.3203780089030142 0.03054127366342857 0.0 0.8663749725088239 0.0037641699309076963 0.0 1.2527015439121756 0.04011134359975299 0.0 0.646384959614484 -0.04041402788318371 0.0 0.6043095205105078 -0.012362042399404373 0.0 0.012260593877303404 0.010289147495134666 0.0 1.1162716392863945 -0.024440150462684933 0.0 0.27327859820237604 -0.004326641334784711 0.0 0.1715006735565468 -0.04657403602884806 0.0 0.3084983315713775 -0.028341522754228906 0.0 0.8471263236289526 -0.08835102695051468 0.0 0.6436574156797312 -0.06293978281350153 0.0 1.2919901091858232 -0.050340368124331764 0.0 0.629348198111949 0.02719804794204683 0.0 1.2520775078410742 -0.08823335399184107 0.0 0.07474659323858751 -0.03585090567637147 0.0 1.15199499095673 0.10661503326561882 0.0 0.8864575035123262 0.17711995330148078 0.0 0.69392194593 -0.15531280612456372 0.0 1.0453442889074196 -0.06122118148466187 0.0 1.0149910576931909 -0.18526279233245896 0.0 0.8655266523880556 -0.17630987730777015 0.0 0.8778608165578178 -0.022723622829548207 0.0 0.40945695273956034 -0.012493982148001553 0.0 0.2186010474101969 -0.021065135054052418 0.0 1.2902645442581102 -0.012410458989943373 0.0 0.1752227543718703 -0.031972840273432 0.0 1.2984605994267575 -0.044808933001475815 0.0 0.1268244107534095 -0.03219485464082957 0.0 0.5749598941693628 0.0023607125325272567 0.0 -0.07338797147358708 -0.05023476936174713 0.0 0.6121767988383545 -0.003128281274857558 0.0 0.8865275782289774 0.29275044843694603 0.0 0.8906392017772812 0.4068689395891451 0.0 0.8886978019344044 0.25794694230487264 0.0 0.9146702308961324 0.10956428579516114 0.0 0.868734676090219 0.21637953523102546 0.0 0.9115457933540099 0.29519765782533974 0.0 0.8601561912599959 0.22439246472711114 0.0 0.8031067094221123 0.17436733485186254 0.0 0.8693239609111111 0.1578311517315745 0.0 0.0 0.0 0.0 0.8434330755556043 0.17126434025512735 0.0 0.8748293596314285 0.17023223733625656 0.0 1.1084378161366941 -0.0009741562249172023 0.0 1.2853059467323573 -0.0005038343440368753 0.0 1.058674406891846 -0.054641401507741855 0.0 0.7475681996346356 -0.13008199286227257 0.0 1.213761837385528 0.0778138478682954 0.0 0.7145916416042237 -0.16323592396849548 0.0 1.1220346589885932 -0.11396720583363014 0.0 1.0775470379227103 -0.0023273303893219127 0.0 1.2904136448744843 0.013827929113869257 0.0 0.6524768186169156 0.006514790105961607 0.0 1.2422763535932406 0.003050345459669043 0.0 1.0733075408811676 0.0200045235448222 0.0 -0.050136996735632475 -0.08042715680457321 0.0 -0.19609514034941763 -0.028712080850781054 0.0 0.9532438588255603 0.32755585074951105 0.0 1.0405950618122464 -0.10386326351351267 0.0 0.5590171235481783 -0.10551351027809328 0.0 0.0 0.0 0.0 1.2054764633936 -0.024656252512837786 0.0 1.267734080412506 -0.04585653857065082 0.0 1.231732545292192 0.04513001431628908 0.0 1.0637044519405485 -0.06540541406790086 0.0 0.4253893180880101 -0.010017336448164748 0.0 1.2509669231416483 0.027320045229253468 0.0 1.287762351368624 0.10071422855645158 0.0 -0.00750698257945679 -0.06043753671177247 0.0 -0.1687261579924819 -0.036405865437122625 0.0 -0.1553574608204825 -0.05827288479089488 0.0 -0.15650680563440417 0.006895644902803837 0.0 1.1547938620320342 0.15872900917258018 0.0 0.7749063148162783 0.18323063834996905 0.0 0.7787577510077427 0.1479546493719406 0.0 0.7864807425410203 0.10386063199115468 0.0 0.6189271033068576 0.10477905283139473 0.0 0.4535099906658965 -0.07822865846211692 0.0 0.07641280958749554 -0.086994864972106 0.0 0.448551919498296 -0.1378949038113655 0.0 0.9845620900477134 0.033843329773565876 0.0 0.0 0.0 0.0 0.5927388005717136 0.001969418488660337 0.0 1.0399155257891617 0.036602398974076585 0.0 -0.22715200328530508 -0.08103497256549622 0.0 1.082809394806141 0.21728552551767014 0.0 0.9019431126390547 0.11080636633223226 0.0 1.2060103345462825 -0.10162243315003677 0.0 0.1935194473235444 -0.04630463670965484 0.0 0.4606542409847469 -0.014170932754927437 0.0 0.16937801256644805 -0.06067695479399831 0.0 1.2921486145927898 0.06912377881912346 0.0 -0.21533642940745 -0.05824652017122128 0.0 -0.16723307301234647 -0.07582821926470018 0.0 -0.1947742549777187 -0.09769591005460629 0.0 -0.13050310372722096 -0.04253918680796579 0.0 -0.20649740017284515 -0.12298836723509173 0.0 -0.23444568950632208 -0.10645838153347754 0.0 -0.10600938294186935 -0.10986443579646564 0.0 -0.12962987136681028 -0.1025492713002987 0.0 -0.22457751000847884 -0.12078377086969536 0.0 0.044068757480953076 -0.12514609453471476 0.0 -0.12422348312540153 -0.07187545127603748 0.0 -0.22414747854931594 -0.12792832123364645 0.0 -0.23364193513249826 -0.13134657729252436 0.0 -0.10782340437204944 -0.13826980314111748 0.0 0.0 0.0 0.0 0.9400616673416251 0.22742348593858977 0.0 0.9518243721021418 0.04020261369903743 0.0 0.273071240114175 -0.11267651139385042 0.0 0.3196452079310785 -0.02321677271678803 0.0 0.650350503628965 0.009305293340046863 0.0 1.0486646802417794 0.058553484779517176 0.0 1.2403275162726917 0.05347507457936955 0.0 1.2237417282789538 -0.04859334663842359 0.0 0.1290833755721091 -0.07270913884073757 0.0 -0.12339058971116015 -0.13026687296180617 0.0 -0.06454864005523729 -0.10007716290508757 0.0 0.12343556477311575 -0.13687424833591255 0.0 0.08865599838053596 -0.13093423572229237 0.0 0.35891363916963187 -0.136580496590937 0.0 0.6230231422851019 -0.10854912371952628 0.0 0.9548465232152139 -0.12568013698357133 0.0 0.39895087817789704 -0.12522719002315374 0.0 0.6636561040263317 -0.13716345241751424 0.0 0.7399521303079872 -0.12771070581704108 0.0 0.9028452776348317 -0.13409048555197212 0.0 0.23682445578462216 -0.10453083190296701 0.0 1.1788249536213338 -0.09781260628206226 0.0 1.1082066045194372 -0.11932623706285424 0.0 1.2365557422767208 -0.09532130229250034 0.0 1.12505250843506 -0.11956183994812007 0.0 -0.1386900756586492 -0.06288467238082186 0.0 1.0481072811945518 -0.10774201053472444 0.0 1.1516699135993937 -0.11198205393218315 0.0 1.1904977525838445 -0.168804915656334 0.0 -0.14107453729673763 -0.013584629388302662 0.0 0.4699222474430395 -0.09013521888385555 0.0 1.1696799716146817 -0.0591115878113195 0.0 0.061873576991312504 -0.07603414466094123 0.0 -0.18035648128259382 -0.08225080163226443 0.0 1.1469488082711243 -0.0676469518467822 0.0 -0.0191600320461474 0.011801413595519918 0.0 -0.17796258704111123 -0.0555269042610956 0.0 0.10552773605720281 0.024710953045412837 0.0 -0.04313478279050845 -0.027912540872467202 0.0 -0.12651578373726616 0.013276993136198635 0.0 0.39057136479769694 -0.04502756651195985 0.0 -0.09331118425312591 0.05729225446207372 0.0 0.43267802165315283 0.2504399989620582 0.0 0.007207728686928071 0.03184777665198025 0.0 -0.05782935914266659 0.1196060662814875 0.0 -0.04549342198749281 0.08084934112735202 0.0 0.2548123064671558 0.09652189941552108 0.0 0.9540630865495527 0.02325993353850136 0.0 0.6078436870408683 0.11431075149949968 0.0 0.25876227757377235 0.033811385414471096 0.0 0.3105480256974929 -0.13066356558871692 0.0 0.8792592525651016 -0.11821645444712843 0.0 0.35922093872223926 -0.02906865603096555 0.0 1.2430111697285426 0.08614631492004975 0.0 1.0684496638852046 0.10536487904765407 0.0 0.9191643082661749 -0.059598132619725644 0.0 -0.09441494316323179 -0.10167979142574231 0.0 -0.16148340568472883 -0.1292467783786844 0.0 -0.21181616095111022 -0.11614536073270902 0.0 -0.006433632478677501 -0.06836853075077642 0.0 -0.17820754759396354 -0.11036697787992755 0.0 0.2939136002029225 -0.0675522742645143 0.0 1.1463451522429524 -0.05445933656162038 0.0 0.6344002656025776 -0.06877580908780205 0.0 0.880351304756369 -0.04149643948793346 0.0 0.1767940651155645 0.1477888658554537 0.0 0.0019375981675058484 0.07809716717299246 0.0 0.01921682043374713 0.18302905389724067 0.0 0.17791048652966104 0.09487202426441509 0.0 -0.024150926738520914 0.14273327391053323 0.0 1.0885179168701307 0.18699321811518413 0.0 0.03619999628337769 0.19344243544522666 0.0 0.1830817969884388 0.2504945706062915 0.0 0.07638854231965095 0.22718949143172917 0.0 0.13040650496368644 0.1948443780083376 0.0 0.4992768595195977 0.005431730739677888 0.0 0.683915714874283 -0.04573022934111662 0.0 0.48343492560921847 -0.012336533835116523 0.0 0.8150629892708567 -0.08726422041589324 0.0 0.204149381277279 -0.00786674597739556 0.0 0.8187241508759717 -0.009585693961608202 0.0 1.0973529867303495 -0.059212234573570756 0.0 1.0386095793958028 -0.07399925445162818 0.0 1.0357015394580056 -0.09127005296287896 0.0 0.5757547645650974 0.00511630909708599 0.0 0.49880847059510064 0.03681267751896526 0.0 0.43774973199636136 0.08000477181160513 0.0 0.37455165094267656 0.07986640510391976 0.0 0.14665386129862215 0.1402955772799566 0.0 0.8248164012087733 -0.004675411868436547 0.0 0.3717762646350248 -0.028083964743889512 0.0 0.7738683433651541 0.040819146866390016 0.0 0.13492195518099304 -0.06502071775047484 0.0 0.33089090618149974 -0.004065739620955311 0.0 -0.08620768614310574 -0.10154627412599769 0.0 1.23545183031642 0.0031270171975495103 0.0 1.0976582150113692 0.07238733299424643 0.0 1.2112796536643187 -0.06784178429199528 0.0 1.1353828812493207 -0.07042932667447341 0.0 0.21030570536541465 0.14927182841605122 0.0 0.4892161833741862 0.0736299100874179 0.0 0.7956656240405137 0.08862979594807052 0.0 0.2555697632844442 0.0158282136640067 0.0 1.2089810952436768 0.028420353759740613 0.0 1.1878906649988077 -0.07808842915778137 0.0 0.8307114915412881 0.2629186371502537 0.0 1.1403517923221629 -0.06504773568124035 0.0 0.7933301226146968 0.06710442703118186 0.0 1.2800412965367678 0.13951371862612635 0.0 0.5726559150200187 0.07060812624310145 0.0 0.9687919166178361 0.15903866304388303 0.0 1.2382012744544884 0.053234709033213624 0.0 1.0636886515747759 -0.05889976446042329 0.0 1.1374742650188905 -0.0595973371044182 0.0 1.0356024148275977 0.12159150043869024 0.0 1.1995204864731137 0.17270513663337245 0.0 1.2257609881399754 0.14052861566466437 0.0 1.1866581345496467 0.2119887833285139 0.0 1.2000699554327756 0.23815382070376312 0.0 1.1655650487393452 0.19844807362119563 0.0 0.9676426608677793 0.20623209885173663 0.0 1.1060792148645946 -0.05816713210486279 0.0 0.0 0.0 0.0 1.1897804837138855 0.10858279883281947 0.0 1.1200254855840726 0.2545859884356587 0.0 0.6435183331545001 0.17314837780985873 0.0 1.1992592694541993 0.14177953226509205 0.0 1.1221520033112757 0.24017724445750663 0.0 1.2290272777201705 0.1972565284924904 0.0 0.9223145231289804 0.23628103884457993 0.0 1.1355666250303333 0.20630819642719198 0.0 0.8809794648484366 0.26836980231689567 0.0 0.5982484607855298 0.21885233486187933 0.0 1.1697670960056217 0.24131759380013987 0.0 0.9693140183451029 0.2635704658453563 0.0 1.1190036993089802 0.24219542486031898 0.0 1.0606124038902642 0.2674507918681172 0.0 0.9913070022590337 0.2570788538306429 0.0 1.2475611096304042 0.20109485560564686 0.0 1.2141693489952996 0.2229980543306442 0.0 1.167796807427207 0.1649714980988824 0.0 0.4525139210776042 0.16218204412904594 0.0 0.8666939589052713 0.11473378813150764 0.0 1.1251889374365025 0.21602303932963063 0.0 1.101884549660648 0.21568798530425792 0.0 1.0016125530573143 0.11151514185784085 0.0 1.039919124909535 0.1552232671706528 0.0 1.1211384887131122 0.17320733037028613 0.0 0.9818675267514902 0.11750875909248526 0.0 0.9938932917591675 0.18797210243001897 0.0 0.9456641198155712 0.12185134469663651 0.0 1.0822033627202285 0.16979639131716429 0.0 0.7684272626021864 0.09557318564071123 0.0 1.0350886532754915 0.15603474019034094 0.0 0.9860773393894617 0.1187164848811816 0.0 1.0582864183855634 0.2067449473661923 0.0 0.9371170860595296 0.09798560562731391 0.0 0.0 0.0 0.0 0.6488700227091182 -0.0028211378288380174 0.0 1.0953808818838677 0.4096583045988651 0.0 1.1882314478961227 0.3848704324588378 0.0 1.0944381341916605 -0.40170168184413085 0.0 0.8569773970042018 -0.20662921928602423 0.0 0.9682305508643216 -0.22520755471832188 0.0 0.8933175787206222 -0.08102093953327517 0.0 1.2458859959975959 -0.02438435504697551 0.0 1.1466050417785307 -0.032817390866285885 0.0 1.2369850721815359 -0.061295593111402834 0.0 1.178484039058578 -0.04429852302053459 0.0 1.2220689676422298 -0.020836483310340926 0.0 -0.1440605276716177 -0.007707038982001944 0.0 -0.1330264029477763 0.004060451789424672 0.0 -0.07021114867393692 -0.014709824310395334 0.0 -0.0731042675983463 0.03705037938204671 0.0 0.08702769832173556 0.032306819638349096 0.0 -0.11551752540665797 0.034819839629471626 0.0 -0.03150741597121684 0.06780408673262392 0.0 0.11014282292381643 0.05012922998773626 0.0 -0.027687354770657986 0.08411082980804556 0.0 -0.08113601073389336 0.0594594441305599 0.0 0.9877123193904844 0.11335292323576512 0.0 -0.021646957601183403 -0.045701223506078935 0.0 1.1552703264637554 -0.051436911856431684 0.0 1.0830252603516894 -0.04577290116697871 0.0 0.9350068992058878 -0.031098183442464785 0.0 1.072311050962875 -0.03923146241862599 0.0 1.1982401694428713 -0.1078790820542559 0.0 0.9259906550719182 -0.020928348889692885 0.0 1.189113262610135 -0.0791200029648081 0.0 1.0882063166623641 -0.05359751369774297 0.0 1.110307532356637 -0.049725826581881356 0.0 0.9651902701947008 -0.05188398327560559 0.0 0.9676289121868149 -0.0378305525087102 0.0 0.7151623115401609 0.01701962353062083 0.0 1.1392692719117472 -0.08452683545735583 0.0 1.2021983607516764 -0.13993316072925216 0.0 1.1498645823965952 -0.11664129198786916 0.0 0.9997039918461527 -0.08445094171508617 0.0 1.1993399253065895 -0.12282403606823421 0.0 0.8732792477424567 -0.05673991165960932 0.0 1.1968180761499254 -0.1566182367217277 0.0 1.0908157983639757 -0.12531031778144233 0.0 0.9259385515682191 -0.12421216330984522 0.0 1.1001576244503395 -0.2104555519973289 0.0 0.9614728616128194 -0.10809347106774793 0.0 0.5011437786496937 0.046635835681687124 0.0 1.0896116356133476 -0.16340332785328784 0.0 0.7476701872955652 -0.04780155604146909 0.0 1.1325847677589 -0.1