<?xml version="1.0"?>
<VTKFile type="UnstructuredGrid"  version="0.1"  >
<UnstructuredGrid>
<Piece  NumberOfPoints="1289" NumberOfCells="2413">
<Points>
<DataArray  type="Float64"  NumberOfComponents="3"  format="ascii">0 0 0  0 0.41 0  2.2 0.41 0  2.2 0 0  0.1 0.1 0  0.1 0.3 0  0.8 0.3 0  0.8 0.1 0  0.25 0.2 0  0.248976 0.210065 0  0.245948 0.219718 0  0.241038 0.228563 0  0.234448 0.23624 0  0.226448 0.242432 0  0.217365 0.246888 0  0.207571 0.249423 0  0.197468 0.249936 0  0.187467 0.248404 0  0.17798 0.24489 0  0.169395 0.239539 0  0.162062 0.232569 0  0.156283 0.224265 0  0.152293 0.214968 0  0.150257 0.205058 0  0.150257 0.194942 0  0.152293 0.185032 0  0.156283 0.175735 0  0.162062 0.167431 0  0.169395 0.160461 0  0.17798 0.15511 0  0.187467 0.151596 0  0.197468 0.150064 0  0.207571 0.150577 0  0.217365 0.153112 0  0.226448 0.157568 0  0.234448 0.16376 0  0.241038 0.171437 0  0.245948 0.180282 0  0.248976 0.189935 0  1.1 0 0  1.1 0.41 0  0.1 0.2 0  0.45 0.1 0  0.45 0.3 0  0.55 0 0  0.275 0.1 0  0.275 0.3 0  0.275 0 0  0.55 0.41 0  0 0.205 0  0.825 0 0  0.825 0.41 0  0.275 0.41 0  0.1 0.15 0  0.1875 0.1 0  0.1 0.25 0  0.1875 0.3 0  0.132322 0.2 0  0.241426 0.253518 0  0.241426 0.146482 0  0.264574 0.17974 0  0.264574 0.22026 0  0.138434 0.187348 0  0.153372 0.150948 0  0.148413 0.164094 0  0.176495 0.136535 0  0.22768 0.143571 0  0.138434 0.212652 0  0.148413 0.235906 0  0.176495 0.263465 0  0.22768 0.256429 0  0.23125 0.3 0  0.24769 0.24094 0  0.23125 0.1 0  0.24769 0.15906 0  0.26253 0.193641 0  0.190482 0.137872 0  0.166753 0.146661 0  0.157737 0.244461 0  0.190482 0.262128 0  0.203107 0.261264 0  0.253635 0.22977 0  0.203107 0.138736 0  0.253635 0.17023 0  0.261028 0.206206 0  0.167707 0.251809 0  0.143629 0.224191 0  0.215302 0.2591 0  0.270465 0.245894 0  0.215302 0.1409 0  0.270465 0.154106 0  0.284052 0.202587 0  0.14375 0.3 0  0.209375 0.3 0  0.225966 0.278501 0  0.209375 0.1 0  0.225966 0.121499 0  0.211613 0.273759 0  0.211613 0.126241 0  0.143629 0.175809 0  0.1 0.175 0  0.133484 0.164832 0  0.144491 0.249539 0  0.1 0.225 0  0.133484 0.235168 0  0.3625 0.3 0  0.25691 0.253381 0  0.25691 0.146619 0  0.277205 0.188698 0  0.184724 0.275712 0  0.237372 0.268285 0  0.184724 0.124288 0  0.237372 0.131715 0  0.197578 0.273149 0  0.193656 0.286994 0  0.197578 0.126851 0  0.193656 0.113006 0  0.122953 0.187671 0  0.118362 0.153758 0  0.155372 0.258107 0  0.122953 0.212329 0  0.118362 0.246242 0  0.276394 0.27264 0  0.276394 0.12736 0  0.280965 0.170013 0  0.253125 0.3 0  0.14375 0.1 0  0.253125 0.1 0  0.269489 0.26014 0  0.269489 0.13986 0  0.303639 0.184297 0  0.165625 0.3 0  0.134742 0.273113 0  0.257831 0.274737 0  0.255279 0.128499 0  0.3625 0.1 0  0.165625 0.1 0  0.162031 0.132368 0  0.134955 0.126405 0  0.149334 0.125568 0  0.142936 0.139597 0  0.12695 0.140259 0  0.242514 0.285501 0  0.242514 0.114499 0  0.1 0.125 0  0.117483 0.12555 0  0.11154 0.139776 0  0.121875 0.1 0  0.109143 0.1125 0  0.126805 0.114 0  0.220313 0.29129 0  0.351562 0.287369 0  0.207222 0.2866 0  0.220312 0.10871 0  0.1375 0 0  0.20625 0 0  0.207222 0.1134 0  0.11722 0.17118 0  0.1 0.1625 0  0.0778409 0.16875 0  0.0862762 0.15625 0  0 0.15375 0  0 0.1025 0  0.11722 0.22882 0  0.1 0.2375 0  0 0.3075 0  0.0862762 0.23125 0  0.0598995 0.222547 0  0.0860223 0.2125 0  0.289584 0.181469 0  0.300267 0.16446 0  0.163832 0.269071 0  0.149597 0.273325 0  0.1 0.275 0  0.268498 0.285953 0  0.31875 0.3 0  0.294154 0.254672 0  0.296875 0.3 0  0.293558 0.271845 0  0.285095 0.286799 0  0.324298 0.264316 0  0.307866 0.263745 0  0.317093 0.234901 0  0.315485 0.281219 0  0.316547 0.250625 0  0.344693 0.243731 0  0.331592 0.251147 0  0.35129 0.270663 0  0.338689 0.263683 0  0.340625 0.3 0  0.249849 0.264383 0  0.265097 0.11422 0  0.284688 0.156136 0  0.242188 0.324017 0  0.0856613 0.2625 0  0.132812 0.0612217 0  0.264062 0.0612217 0  0.198437 0.07598340000000001 0  0.0860223 0.1375 0  0.0794526 0.191089 0  0.285228 0.140397 0  0.298655 0.148737 0  0.31875 0.1 0  0.327335 0.15374 0  0.296875 0.1 0  0.312289 0.155283 0  0.313348 0.135607 0  0.321802 0.173916 0  0.298433 0.134116 0  0.112124 0.2625 0  0.127526 0.259083 0  0.121875 0.3 0  0.0682687 0.241503 0  0.1 0.2875 0  0.117762 0.28125 0  0.107813 0.3 0  0.103906 0.313849 0  0.0778409 0.28125 0  0.1375 0.41 0  0.0862762 0.29375 0  0.08886860000000001 0.24375 0  0.307812 0.338778 0  0.307812 0.292227 0  0.33216 0.279164 0  0.387888 0.266414 0  0.264063 0.31948 0  0.110937 0.07598340000000001 0  0.242188 0.07598340000000001 0  0.319914 0.11839 0  0.340625 0.1 0  0.334448 0.133793 0  0.329687 0.108539 0  0.346259 0.118491 0  0.360334 0.173636 0  0.327539 0.205033 0  0.132812 0.288712 0  0.362436 0.278836 0  0.368105 0.259418 0  0.4125 0.41 0  0.329687 0.324017 0  0.329687 0.292306 0  0.285938 0.318952 0  0.417187 0.338778 0  0.324481 0.14148 0  0.351562 0.106771 0  0.40625 0.1 0  0.341028 0.168342 0  0.319221 0.190479 0  0.335292 0.184501 0  0.305563 0.20794 0  0.220313 0.31948 0  0.132812 0.332772 0  0.0865876 0.311259 0  0.0598995 0.302453 0  0.0906541 0.343255 0  0.353543 0.255837 0  0.36574 0.237633 0  0.405007 0.254279 0  0.275795 0.352123 0  0.4125 0 0  0.35493 0.137394 0  0.366563 0.120618 0  0.35917 0.205246 0  0.198438 0.318952 0  0.0626109 0.263892 0  0.40625 0.3 0  0.354809 0.155936 0  0.386512 0.146872 0  0.373101 0.159939 0  0.384375 0.1 0  0.343394 0.19929 0  0.350682 0.185683 0  0.368101 0.189748 0  0.344016 0.221511 0  0.391108 0.213329 0  0.376279 0.204783 0  0.398843 0.182768 0  0.375804 0.222746 0  0.390665 0.196958 0  0.394004 0.23518 0  0.359883 0.222828 0  0.419908 0.204359 0  0.404243 0.204783 0  0.412615 0.224526 0  0.20625 0.41 0  0.165625 0.325257 0  0.0347982 0.244954 0  0.379558 0.247154 0  0.34165 0.147603 0  0.372264 0.136992 0  0.388988 0.121989 0  0.373437 0.108554 0  0.351562 0.31948 0  0.391367 0.16527 0  0.399572 0.223324 0  0.452011 0.227371 0  0.40877 0.239392 0  0.431491 0.237337 0  0.421224 0.250459 0  0.449619 0.262098 0  0.418865 0.276779 0  0.437063 0.252274 0  0.415673 0.263227 0  0.430988 0.266772 0  0.402767 0.273419 0  0.452967 0.244883 0  0.428125 0.3 0  0.408502 0.286186 0  0.384375 0.3 0  0.392267 0.285807 0  0.465927 0.219339 0  0.43489 0.283846 0  0.376424 0.286289 0  0.625 0.3 0  0.473533 0.205186 0  0.461713 0.255517 0  0.5375 0.3 0  0.465725 0.235405 0  0.44631 0.201425 0  0.471875 0.3 0  0.494307 0.227729 0  0.459448 0.206736 0  0.462294 0.180792 0  0.478933 0.227536 0  0.486793 0.21381 0  0.486322 0.251373 0  0.50065 0.215318 0  0.54005 0.175389 0  0.474633 0.189893 0  0.512916 0.208697 0  0.49531 0.199967 0  0.475889 0.175275 0  0.625 0.1 0  0.459311 0.153933 0  0.513645 0.242704 0  0.392892 0.248539 0  0.374815 0.271913 0  0.365974 0.14871 0  0.395312 0.109184 0  0.417061 0.123981 0  0.483196 0.277003 0  0.381967 0.179632 0  0.429898 0.219374 0  0.433473 0.206165 0  0.43149 0.181038 0  0.444208 0.215487 0  0.472985 0.247309 0  0.49375 0.3 0  0.475579 0.262714 0  0.49916 0.274293 0  0.501175 0.184809 0  0.514164 0.225681 0  0.543648 0.214977 0  0.5341630000000001 0.23481 0  0.527396 0.216171 0  0.5375 0.1 0  0.534548 0.202315 0  0.561545 0.192513 0  0.5494289999999999 0.201221 0  0.570923 0.218346 0  0.412582 0.149833 0  0.489327 0.264745 0  0.502439 0.254775 0  0.462391 0.271166 0  0.496775 0.241732 0  0.5294410000000001 0.268606 0  0.482812 0.291099 0  0.46879 0.285038 0  0.452663 0.284065 0  0.51789 0.257882 0  0.53408 0.252026 0  0.560142 0.243543 0  0.545708 0.243474 0  0.547532 0.229019 0  0.55282 0.265323 0  0.398971 0.153424 0  0.400349 0.135684 0  0.410135 0.168145 0  0.428823 0.161323 0  0.415266 0.183779 0  0.329687 0.0810483 0  0.395312 0.0612217 0  0.373437 0.318952 0  0.439062 0.324017 0  0.561816 0.229354 0  0.585029 0.239287 0  0.431827 0.139854 0  0.446796 0.168929 0  0.351562 0.07598340000000001 0  0.395313 0.318944 0  0.54337 0.150762 0  0.460937 0.31948 0  0.418412 0.137529 0  0.428125 0.1 0  0.442783 0.152332 0  0.450742 0.134294 0  0.373437 0.0805201 0  0.384383 0.342558 0  0.482812 0.318952 0  0.429239 0.127457 0  0.444274 0.117405 0  0.426548 0.113815 0  0.49375 0.1 0  0.488954 0.113984 0  0.457973 0.121842 0  0.471621 0.137346 0  0.515625 0.325257 0  0.48125 0.41 0  0.417187 0.07598340000000001 0  0.496363 0.126778 0  0.479043 0.155715 0  0.439062 0.0805201 0  0.481795 0.126919 0  0.471875 0.1 0  0.489227 0.142159 0  0.515625 0.1 0  0.520062 0.147117 0  0.501244 0.161791 0  0.505431 0.112984 0  0.505344 0.14029 0  0.526563 0.119081 0  0.5181750000000001 0.131908 0  0.539868 0.136937 0  0.460937 0.108383 0  0.474242 0.114415 0  0.460937 0.0810483 0  0.487841 0.167168 0  0.526563 0.0612217 0  0.526563 0.106406 0  0.537619 0.112743 0  0.58125 0.1 0  0.559375 0.1 0  0.482812 0.08105569999999999 0  0.471883 0.0587655 0  0.570312 0.129396 0  0.548437 0.07598340000000001 0  0.504687 0.08105569999999999 0  0.49375 0.0470127 0  0.570312 0.112663 0  0.592798 0.12103 0  0.553986 0.12103 0  0.570312 0.0805201 0  0.48125 0 0  0.114787 0.2 0  0.160769 0.284765 0  0.175816 0.288361 0  0.162602 0.116048 0  0.154687 0.07598340000000001 0  0.176562 0.0805201 0  0.0598995 0.147547 0  0.307812 0.109924 0  0.291279 0.117157 0  0.278491 0.112989 0  0.285937 0.07598340000000001 0  0.307812 0.0805201 0  0.296928 0.196743 0  0.318141 0.218507 0  0.330208 0.227509 0  0.301397 0.225668 0  0.302706 0.241401 0  0.292574 0.21424 0  0.282762 0.230935 0  0.284351 0.244775 0  0.269553 0.23261 0  0.278572 0.217242 0  0.226924 0.342606 0  0.446928 0.185396 0  0.515625 0.3 0  0.504687 0.288879 0  0.515256 0.276534 0  0.529479 0.285328 0  0.58125 0.3 0  0.541969 0.272936 0  0.559375 0.3 0  0.556796 0.282529 0  0.543473 0.287206 0  0.581429 0.267774 0  0.566728 0.271171 0  0.570869 0.255585 0  0.577404 0.283865 0  0.603125 0.3 0  0.597531 0.28035 0  0.570312 0.338778 0  0.592188 0.292492 0  0.603513 0.256094 0  0.614063 0.286265 0  0.610329 0.27064 0  0.632708 0.251285 0  0.657223 0.261594 0  0.618789 0.257807 0  0.614188 0.22987 0  0.630935 0.265614 
[...]
<PointData  Vectors="v"> 
	<DataArray  type="Float64"  Name="v"  NumberOfComponents="3" format="ascii">
0.0 0.0 0.0 0.0 0.0 0.0 0.0 0.0 0.0 0.0 0.0 0.0 0.7973880916181983 -0.18917429483004514 0.0 0.8413468354207523 0.19817461046729506 0.0 0.9700428300989917 0.024030822045535652 0.0 1.004268437793465 0.08287935563516424 0.0 0.0 0.0 0.0 0.0 0.0 0.0 0.0 0.0 0.0 0.0 0.0 0.0 0.0 0.0 0.0 0.0 0.0 0.0 0.0 0.0 0.0 0.0 0.0 0.0 0.0 0.0 0.0 0.0 0.0 0.0 0.0 0.0 0.0 0.0 0.0 0.0 0.0 0.0 0.0 0.0 0.0 0.0 0.0 0.0 0.0 0.0 0.0 0.0 0.0 0.0 0.0 0.0 0.0 0.0 0.0 0.0 0.0 0.0 0.0 0.0 0.0 0.0 0.0 0.0 0.0 0.0 0.0 0.0 0.0 0.0 0.0 0.0 0.0 0.0 0.0 0.0 0.0 0.0 0.0 0.0 0.0 0.0 0.0 0.0 0.0 0.0 0.0 0.0 0.0 0.0 0.0 0.0 0.0 0.0 0.0 0.0 0.0 0.0 0.0 0.7648614707827089 -0.002914304425412889 0.0 1.2171930947344956 0.15544367356158917 0.0 1.2161816002594115 -0.0881188104460645 0.0 0.0 0.0 0.0 1.3039976029418134 -0.07964882263297898 0.0 1.313408230524113 0.08538880229774926 0.0 0.0 0.0 0.0 0.0 0.0 0.0 1.0 0.0 0.0 0.0 0.0 0.0 0.0 0.0 0.0 0.0 0.0 0.0 0.8470566718404043 -0.22953131459538192 0.0 1.1546415598901092 -0.30330389119000295 0.0 0.8681654985201723 0.2240491853489325 0.0 1.169109411897667 0.3067836757893933 0.0 0.43210905001608585 -0.0064158828819292175 0.0 0.1706408326483198 0.026246934822145095 0.0 0.16774735588787026 -0.02408301327834219 0.0 -0.04533180750759697 -0.06862754008472216 0.0 -0.05077833119509163 0.05956034543985104 0.0 0.33830176849902416 -0.2842246786275907 0.0 0.8737850534089723 -0.6737227314886304 0.0 0.6514325326219507 -0.6954679458153444 0.0 1.243298573759433 -0.6037307580684264 0.0 0.29923245625825895 0.0018255258317794393 0.0 0.33381576494157417 0.26777271359156235 0.0 0.652563288462501 0.671353057906131 0.0 1.2217479571044605 0.6023140761581899 0.0 0.29624737589992683 -0.0006969202972735973 0.0 1.282655977529637 0.18959803124170624 0.0 -0.018869608558613485 0.05494608009106728 0.0 1.2733148558564842 -0.17809359655997703 0.0 -0.018311983348066718 -0.05246004536595016 0.0 -0.03554961187319525 -0.03024295868728222 0.0 1.2227450624932952 -0.3988818955325484 0.0 1.128459380140037 -0.7313667703029572 0.0 0.8712253673005191 0.7769760576937935 0.0 1.2344917633708663 0.3986419408944481 0.0 0.9148160270193502 0.16426073067172312 0.0 -0.03815154420946957 0.06937960399044737 0.0 0.9141179996852302 -0.1608846855131843 0.0 -0.037773793709590234 -0.0681866916872597 0.0 -0.03099729582340207 0.018671307828020338 0.0 1.061479769638274 0.7277973885560652 0.0 0.447776120436161 0.5307877683220905 0.0 0.5429197457862673 0.031053906352997353 0.0 0.07917865838301984 0.04494483060437845 0.0 0.5413139652454302 -0.03146578868464827 0.0 0.0791670551071661 -0.054064464984836184 0.0 -0.11140138773231056 -0.007010997265386923 0.0 0.9693203700285806 0.296895392172945 0.0 1.2528229563792916 0.24294774841779204 0.0 1.2988670394472261 0.20070534659322375 0.0 1.2260288203380565 -0.24585228427843542 0.0 1.2909196010639754 -0.19901019789273058 0.0 1.3077683156033935 0.2517930129849233 0.0 1.3056896441416868 -0.24815563106923222 0.0 0.4500991559044946 -0.5516887322953301 0.0 0.8059352511508305 -0.13971719433980742 0.0 0.6793801940971459 -0.4206414764112086 0.0 0.8914655379754162 0.5906277219820347 0.0 0.803224636229956 0.1397600669594391 0.0 0.6844093832839313 0.41703628407592536 0.0 1.2612544682413462 -0.047020677640954134 0.0 0.19911659161295517 0.03197162548860166 0.0 0.20239207908493312 -0.028752055547291596 0.0 -0.08275563496045907 -0.046342145989997065 0.0 1.303420749033454 0.4261779535748585 0.0 0.8850312320810072 0.06536933938511563 0.0 1.2970694671308554 -0.4348665764313454 0.0 0.8896403637010514 -0.062168188813958636 0.0 1.3346506798806077 0.3577557487676109 0.0 1.2712056347362817 0.3433988887975467 0.0 1.327220776193576 -0.35912510140587967 0.0 1.2610313261539896 -0.3284434198721715 0.0 0.5884817524580044 -0.16266908829729598 0.0 0.8033186317098677 -0.3303745336572271 0.0 1.0318085707597118 0.595299327285179 0.0 0.5963788451078652 0.1481898117604998 0.0 0.8191239987294656 0.3266591607403267 0.0 0.8853107790222372 0.030130397059062012 0.0 0.8955518888987227 -0.03093681053552389 0.0 -0.03487298371529017 -0.06890742742965156 0.0 1.3087230677484956 0.12989422755747207 0.0 0.934079398346827 -0.306032706819983 0.0 1.2930369969727125 -0.1226130191664345 0.0 0.4200555969540517 0.023550032521168728 0.0 0.430072248047269 -0.02160290054090972 0.0 -0.11994317135947327 -0.04983899073063538 0.0 1.0626559584661963 0.3214253753284475 0.0 0.9528296742918656 0.3788410007917435 0.0 1.0373234872610408 0.06685559533606775 0.0 0.9169959745322798 -0.050706202420805584 0.0 1.2903849594883032 0.056442645233220956 0.0 1.0333575291715362 -0.318989434547653 0.0 1.0981308791878615 -0.5588568046286236 0.0 0.9401846511047208 -0.38034228868006964 0.0 1.0120400031782695 -0.4255354726933178 0.0 0.9473933360986734 -0.5386294907967538 0.0 0.8744748993769704 -0.40213811767533403 0.0 1.3120971462641384 0.15267598786829742 0.0 1.3008300529665422 -0.14985899310026832 0.0 0.8561621455557598 -0.2305500948914058 0.0 0.885056002642963 -0.3031854343136932 0.0 0.8587537880687587 -0.2949770635569804 0.0 0.8535136329698045 -0.2459823064186144 0.0 0.8574733427042757 -0.24510743147408404 0.0 0.902090589634031 -0.30935809740031434 0.0 1.3165027814077825 0.22436917082153657 0.0 1.1614822585853815 -0.04816477541761979 0.0 1.3282194316920355 0.28558233760356094 0.0 1.3069111011267007 -0.2123546163572122 0.0 0.0 0.0 0.0 0.0 0.0 0.0 1.3100273579028066 -0.2788945956835759 0.0 0.7198630861810376 -0.26821892678317694 0.0 0.8245576102844809 -0.2097122386842486 0.0 0.8737306334583916 -0.10986712148075035 0.0 0.8655385219847178 -0.1620222922229227 0.0 0.9375 0.0 0.0 0.7500000000000001 0.0 0.0 0.7276551297198894 0.26232515971048453 0.0 0.8282787372715795 0.19622790003172297 0.0 0.7499999999999999 0.0 0.0 0.8726404764768387 0.12462615338098948 0.0 0.9301832165866638 0.04114716105337532 0.0 0.8509891097489967 0.043137875286299844 0.0 -0.09018505503458003 -0.05610871329414401 0.0 0.01579507602608308 -0.05645600865900941 0.0 1.1388546932640868 0.5363568344254236 0.0 1.033392683321476 0.45776973428798434 0.0 0.8840399987477526 0.2376740463194046 0.0 1.2540833686365724 0.07989169732281061 0.0 1.2951730100031962 0.007960415069309248 0.0 0.29688709429261634 0.008827984804246581 0.0 1.3121372850251933 0.04314557779159149 0.0 0.8324530824567856 0.00635384215498388 0.0 1.2342604332959433 0.04746556349549665 0.0 0.5928515422875392 -0.02942455188590346 0.0 0.5618772196088236 -0.010584825830576955 0.0 -0.009308228760820565 0.004034223823959143 0.0 1.0792253525940088 -0.010504001419082943 0.0 0.233873528687128 -0.006088110136679935 0.0 0.131894545591649 -0.027154403943799855 0.0 0.261227173894481 -0.020150749534260715 0.0 0.7851444079077218 -0.055468357017387275 0.0 0.5829190610125587 -0.04161541078990496 0.0 1.2847914473583222 -0.025033658158927868 0.0 0.615234106984719 0.02709626448871448 0.0 1.2601939931982098 -0.08908539906812998 0.0 0.08811505227844316 -0.051705559132129174 0.0 1.1498164408989613 0.11193212832260754 0.0 0.8854558777377406 0.1743086549676389 0.0 0.6960245205185926 -0.15653358653957364 0.0 1.048533234561875 -0.05948327983021575 0.0 1.0184410846821161 -0.18543901426764844 0.0 0.8664516566458087 -0.17923921807156099 0.0 0.8779046303026046 -0.026278422602630393 0.0 0.4245158601658207 -0.02148806122154533 0.0 0.23825792986576 -0.032250655337943045 0.0 1.2995938307116304 -0.0028705088279433236 0.0 0.19906667989205845 -0.03241072534039938 0.0 1.3070432781291728 -0.04048489294135973 0.0 0.14702052568883947 -0.04096350899309298 0.0 0.6041949184404731 0.0011572148041680656 0.0 -0.06264391581796182 -0.054079775009174616 0.0 0.6337115180598395 -0.00793766540975714 0.0 0.8845932837812037 0.2895697299194372 0.0 0.8881278854573488 0.4032754621794644 0.0 0.8866694362137533 0.25614908888768245 0.0 0.9141425269172888 0.10680166516454107 0.0 0.8673070352255893 0.2141830282471429 0.0 0.9094222501449408 0.29265914497148876 0.0 0.8585065336787675 0.22245575004614823 0.0 0.8016892790470895 0.17290956089757736 0.0 0.868388188017436 0.15566053948153838 0.0 0.0 0.0 0.0 0.8423857204166848 0.1692829657047039 0.0 0.8738839419095673 0.16690290606358185 0.0 1.1131724596864356 0.01055757249141896 0.0 1.267039159746517 0.013930007326686972 0.0 1.0136611668566409 -0.033122274840876986 0.0 0.6916614025447512 -0.07319947624984155 0.0 1.2115951984566815 0.08522099540067471 0.0 0.7161145010007837 -0.16493593692513872 0.0 1.1258427084788627 -0.1128860398313235 0.0 1.1023795360817161 0.004133121869647237 0.0 1.2983967585199134 0.02837472982903597 0.0 0.6903444841333023 0.01644554407349197 0.0 1.2584328723070854 0.015271098204389336 0.0 1.1026934458059934 0.03744546819030259 0.0 -0.043484530024786486 -0.04413730671642821 0.0 -0.19602406730436067 -0.028604786210895346 0.0 0.9505994852701778 0.32553769430942225 0.0 0.9937066416572896 -0.06483637404944825 0.0 0.49466988036620346 -0.059106540775168075 0.0 0.0 0.0 0.0 1.2127928250122715 -0.006379440383800519 0.0 1.2472620619943862 -0.021965975961110284 0.0 1.230155513156486 0.0553830761565248 0.0 1.1009999747190184 -0.06010759933375709 0.0 0.4572922957106548 -0.009313867743084622 0.0 1.2633875560028867 0.04663149216541329 0.0 1.2662815979932391 0.11436421816220332 0.0 0.005215539969604882 -0.04740504322389058 0.0 -0.16409118278094342 -0.04326009390197253 0.0 -0.14846787757176194 -0.05095885887345502 0.0 -0.15759659477350346 -0.009455768781264902 0.0 1.1516494196075135 0.16232462203439477 0.0 0.7731371695509012 0.18247364112749903 0.0 0.7778014549979565 0.1464130938560927 0.0 0.7859702358124849 0.10240042003643302 0.0 0.6180199868309018 0.10383147775646101 0.0 0.39278498210008145 -0.04583856322856196 0.0 0.04597943089601196 -0.037989971328610095 0.0 0.4117097247355951 -0.061260698321482496 0.0 0.987118510834931 0.04043147829193513 0.0 0.0 0.0 0.0 0.6328997030385851 0.025283847606747692 0.0 1.0688628068152755 0.06358173177784918 0.0 -0.22744343413482013 -0.041060671854640025 0.0 1.0797104267129594 0.21911754682321738 0.0 0.9014206324871092 0.10864667944480506 0.0 1.2356599835010968 -0.07418431227215629 0.0 0.21474934491653247 -0.021355638303563632 0.0 0.4821429243339306 0.03751558540275959 0.0 0.18067885843312173 -0.014698334534469485 0.0 1.2835777179697476 0.08782457733398288 0.0 -0.21357718746893578 -0.041076028593892276 0.0 -0.1616796353104793 -0.05067404177086867 0.0 -0.19241241397338088 -0.04710316412829431 0.0 -0.14048305891827123 -0.023641724569530308 0.0 -0.21091090602286866 -0.03529683337299906 0.0 -0.23601136612625961 -0.0407677265166816 0.0 -0.11642796590911797 -0.020339442904500658 0.0 -0.13897350118996843 -0.036261859345283934 0.0 -0.228032303938117 -0.03528375032360763 0.0 0.026644428969279935 -0.041190987316490235 0.0 -0.13642813732261563 -0.03126798218849352 0.0 -0.23278183041394487 -0.008774360029721652 0.0 -0.2383383141991004 -0.025274723696500214 0.0 -0.10771600298493156 -0.027841857109142953 0.0 0.0 0.0 0.0 0.9374202978135568 0.22751724500150455 0.0 0.951742713800196 0.03878017583298397 0.0 0.22791048525898025 -0.051290241877805204 0.0 0.3504036379961808 -0.011759685292048763 0.0 0.6869931764489284 0.04557749737217179 0.0 1.0671482241258137 0.09245200863118497 0.0 1.2474048610444328 0.07784290000847625 0.0 1.2361142768552127 -0.026248742485366912 0.0 0.12596047728272425 -0.0037988966305297087 0.0 -0.12801616302819602 -0.03355857794514736 0.0 -0.026737736588576377 0.004773827627547217 0.0 0.11174784653693993 -0.042169769945077235 0.0 0.10398433848124307 -0.02801644982212847 0.0 0.3488197896725255 -0.05254764191693674 0.0 0.6585072667026186 -0.06356323460320018 0.0 0.9495070900684681 -0.08168163991395183 0.0 0.4146329632603576 -0.049365503791998146 0.0 0.6378194754022226 -0.07124218775428086 0.0 0.7398269322518761 -0.07378131045300423 0.0 0.8716357914685207 -0.0801585282965029 0.0 0.2869268497893871 -0.02775276524267281 0.0 1.2241430133472713 -0.0820394759228022 0.0 1.1125691649703888 -0.0812094308166401 0.0 1.249416056438723 -0.06261838737196578 0.0 1.1135539380922048 -0.07662823267374255 0.0 -0.10545306394199776 0.034569869434686144 0.0 1.0804494353952616 -0.08496025364743809 0.0 1.1297565345629486 -0.07047783911211211 0.0 1.1236955426419541 -0.15614894974700613 0.0 -0.17105876875693793 0.06888737246799001 0.0 0.534516325018758 -0.04649662857770354 0.0 1.204064345316358 -0.13592851122609675 0.0 0.13131060496742747 0.0010747820033273838 0.0 -0.2054177946378377 0.03157400156209115 0.0 1.2131303464049799 -0.0959389691381111 0.0 0.07271006856766708 0.03761454357634974 0.0 -0.19451727116336157 0.04732373892936834 0.0 0.01321416057277509 0.09280199617834707 0.0 0.029380047026534517 0.03113595984028969 0.0 -0.11287787849525795 0.067835849086772 0.0 0.5068370083706645 -0.034564545680656596 0.0 -0.0671481247700682 0.07433618235277475 0.0 0.2118542892425728 0.14839301769165006 0.0 -0.08641432594752878 0.09532054387838901 0.0 -0.0819446309742024 0.09861791782857071 0.0 -0.1258006336210914 0.10619109501399789 0.0 0.13088146036317994 0.12544656197263465 0.0 1.0414335869960263 0.04420654303777258 0.0 0.5248134163439033 0.1420943384597497 0.0 0.41305740969783167 -0.01238657351335048 0.0 0.2711764007624236 -0.055088014104504396 0.0 0.8223663791975007 -0.06987852911044518 0.0 0.38654912656118284 0.006141873863049825 0.0 1.2376752837506555 0.11023325529611303 0.0 1.0599798270499339 0.1356863838933609 0.0 1.0105676144752485 -0.08861135362344212 0.0 -0.09553440453986542 -0.034249219980235175 0.0 -0.15141798150922753 -0.007832484686563094 0.0 -0.22199103494163475 0.007164086737051732 0.0 -0.048165949744035326 0.03431666210388661 0.0 -0.1703755808288053 0.01213689496313026 0.0 0.3840237806322219 -0.02431882709533324 0.0 1.211853099716829 -0.1053016727457524 0.0 0.7240597901762077 -0.06150233740212769 0.0 0.9923200506517326 -0.09236299732206703 0.0 0.01859168137665109 0.13544519884791142 0.0 0.10381532479947124 0.04556418991802929 0.0 0.06333978970542678 0.06700198172284826 0.0 0.3355845376023587 8.356605473109968e-05 0.0 0.020082129800444704 0.07526188105255695 0.0 1.0950865630210527 0.12604929989818986 0.0 -0.04437075446228576 0.11144908520438872 0.0 0.03523016390791578 0.11097439557442451 0.0 -0.008029645078030029 0.1044848114759841 0.0 0.21061005730548368 0.01587604987284767 0.0 0.4924769479757927 0.07067365199331392 0.0 0.7976425727063132 -0.06854959769588577 0.0 0.625667578557868 -0.04725717743398865 0.0 0.8773223671461323 -0.07652683502728876 0.0 0.3358594559974585 -0.005612670130050699 0.0 0.9604160830002673 -0.10534038326187214 0.0 1.1736689186239144 -0.09928628039269743 0.0 1.1095314449489238 -0.09142360651904152 0.0 1.0884651450505785 -0.08692430881928791 0.0 0.7358797786103108 -0.0671557850318769 0.0 0.6717884867031969 -0.06377845452598768 0.0 0.6045023782292703 -0.0690985282688964 0.0 0.5469663275450455 -0.04706951838251161 0.0 0.28439183724747225 0.00905831557215617 0.0 0.9625400139477008 -0.12348899799355981 0.0 0.3737989421542444 0.036936282982793944 0.0 0.7905072175125006 0.08848053471560924 0.0 0.11491336630007 0.020168309146870077 0.0 0.29140780814377226 0.07177406104836066 0.0 -0.10891890404253124 0.0010041160812159315 0.0 1.2367405405754701 0.013040585133877694 0.0 1.0830984247599107 0.07618242316781675 0.0 1.2325249715212692 -0.04474600198244756 0.0 1.1835499476062683 -0.07535877955815044 0.0 0.34854703511725016 -0.013530014671226057 0.0 0.6196795673860882 -0.09300292973528801 0.0 0.7689986842488417 0.1303608236304336 0.0 0.18478853367615022 0.08688494850311738 0.0 1.2045564067766577 0.03953509977777915 0.0 1.2208790566776702 -0.05834169735231927 0.0 0.6742969036637219 0.15552301632765064 0.0 1.1934974004089145 -0.08628573755384085 0.0 0.7878786126363013 0.11393170714169272 0.0 1.2462252574063375 0.1398030842320836 0.0 0.5192190365976009 0.12028487883305078 0.0 0.9150593878197169 0.16879383686886829 0.0 1.227970553465206 0.06551807697224327 0.0 1.0900033572535321 -0.04632294954633843 0.0 1.1869271739266212 -0.09696706768135502 0.0 1.0123942570595827 0.14696532171052723 0.0 1.1546558171963641 0.17055083890994086 0.0 1.1967782888187084 0.15203927368568876 0.0 1.154560854143492 0.158909660003768 0.0 1.143586361720293 0.18115818694324912 0.0 1.107314293525934 0.18170855844640324 0.0 0.8814380530063102 0.1846325144541186 0.0 1.129226010374812 -0.10755223173074321 0.0 0.0 0.0 0.0 1.167032159528804 0.10757589031431382 0.0 1.037763025845021 0.18835485166364166 0.0 0.5249330567759147 0.16351433975024315 0.0 1.1706702903608062 0.1286566020834091 0.0 1.0425201340100074 0.19196258546402467 0.0 1.1876644109554233 0.16096099114086346 0.0 0.8096863120353285 0.18776299842444844 0.0 1.121239958790417 0.14446403097391528 0.0 0.7369443914957102 0.1774036159471779 0.0 0.4354447148528633 0.16874331062460038 0.0 1.1242455391155635 0.17158919907487394 0.0 0.8503805763256753 0.18814779413341845 0.0 1.074547227215248 0.15960321266982588 0.0 0.9685695907189582 0.17838326724513168 0.0 0.8932201267858315 0.1570192237227735 0.0 1.1974983447188068 0.173590420256223 0.0 1.155642004126238 0.18235989108758888 0.0 1.1407053634360453 0.13854556056299058 0.0 0.3068208989830695 0.15205811135737143 0.0 0.89707797127596 0.08446637488257465 0.0 1.1107748203686483 0.14525813304824542 0.0 1.0871534809450445 0.13980596220777947 0.0 1.0544916861399198 0.07869207665241006 0.0 1.069170437328079 0.10298275491685573 0.0 1.1033674924306742 0.13542517028010004 0.0 0.9724134577170404 0.09604436296579498 0.0 0.961929558546469 0.11017812671552389 0.0 0.9845026164983646 0.08703435833296741 0.0 1.0759905231523315 0.1257443790266903 0.0 0.7870500257150148 0.07494736291144859 0.0 1.0580526307127136 0.09903163392565141 0.0 1.0134342233886127 0.0755210172932339 0.0 1.037796058226315 0.12749232058755106 0.0 0.9907677869112633 0.07337958012463476 0.0 0.0 0.0 0.0 0.6487444010053858 -0.0075618551805296435 0.0 1.091467373042096 0.40841380015959433 0.0 1.1836816819007787 0.3846960127691463 0.0 1.0979529141447046 -0.4037129785189247 0.0 0.8596300229637398 -0.20780110336265806 0.0 0.9713987520881593 -0.22602775481142748 0.0 0.8936971782542211 -0.08333857911549021 0.0 1.2615815965661343 -0.019423097689721155 0.0 1.162244500237607 -0.03232762221608297 0.0 1.247834780447133 -0.06105419782027351 0.0 1.1822878737193512 -0.040446115357235086 0.0 1.2254646095330053 -0.014108515050021584 0.0 -0.14141074902416204 -0.027093184072512794 0.0 -0.14046620484686803 -0.004031531510938279 0.0 -0.08536518814418523 -0.01026070590202564 0.0 -0.08376141431964397 0.02004334278902825 0.0 0.06310246798306063 0.01996340271976357 0.0 -0.11915853066381346 0.014188862150602525 0.0 -0.041954336876243 0.047151901291409344 0.0 0.0911226423278249 0.03600196168891522 0.0 -0.034022049548431924 0.06464958261545616 0.0 -0.08419433794657136 0.036549324862136294 0.0 0.9864611615881217 0.11670517195133119 0.0 -0.08012717610625167 0.05499199113712194 0.0 1.2096605295412433 -0.12009554239072504 0.0 1.1668190388012132 -0.11165205587247244 0.0 1.050792923836067 -0.10708227641979162 0.0 1.1563409690793733 -0.12811098700437296 0.0 1.1751975526675462 -0.15850035091544676 0.0 1.046082400837778 -0.12649878497238318 0.0 1.1931470531386885 -0.1496334479074668 0.0 1.1521391499041242 -0.15106768503731707 0.0 1.1739012722679834 -0.14130280248710397 0.0 1.044056411610356 -0.1609908746020355 0.0 1.0613631126169327 -0.15128935519184258 0.0 0.8538419155187019 -0.12313656349169717 0.0 1.1632812174202751 -0.1671664221466884 0.0 1.151820156071398 -0.1620116275895504 0.0 1.1454331072119848 -0.17704383661211615 0.0 0.9700390604463743 -0.11007682375582122 0.0 1.1728820165768874 -0.1698126920523277 0.0 0.9358502555781578 -0.16314494887843237 0.0 1.1511643711829078 -0.1750262290056288 0.0 1.0911056572692721 -0.1812297661351157 0.0 0.9187431737758569 -0.1720402546353739 0.0 1.0257400018940448 -0.1694375916613612 0.0 0.9776346495088463 -0.17517521006628603 0.0 0.5596462875793488 -0.10691758567578061 0.0 1.0570746734329832 -0.18080764386592038 0.0 0.7874404434689907 -0.15188043457802106 0.0 1.0642882866463965 -0.120224736