<?xml version="1.0"?>
<VTKFile type="UnstructuredGrid"  version="0.1"  >
<UnstructuredGrid>
<Piece  NumberOfPoints="1289" NumberOfCells="2413">
<Points>
<DataArray  type="Float64"  NumberOfComponents="3"  format="ascii">0 0 0  0 0.41 0  2.2 0.41 0  2.2 0 0  0.1 0.1 0  0.1 0.3 0  0.8 0.3 0  0.8 0.1 0  0.25 0.2 0  0.248976 0.210065 0  0.245948 0.219718 0  0.241038 0.228563 0  0.234448 0.23624 0  0.226448 0.242432 0  0.217365 0.246888 0  0.207571 0.249423 0  0.197468 0.249936 0  0.187467 0.248404 0  0.17798 0.24489 0  0.169395 0.239539 0  0.162062 0.232569 0  0.156283 0.224265 0  0.152293 0.214968 0  0.150257 0.205058 0  0.150257 0.194942 0  0.152293 0.185032 0  0.156283 0.175735 0  0.162062 0.167431 0  0.169395 0.160461 0  0.17798 0.15511 0  0.187467 0.151596 0  0.197468 0.150064 0  0.207571 0.150577 0  0.217365 0.153112 0  0.226448 0.157568 0  0.234448 0.16376 0  0.241038 0.171437 0  0.245948 0.180282 0  0.248976 0.189935 0  1.1 0 0  1.1 0.41 0  0.1 0.2 0  0.45 0.1 0  0.45 0.3 0  0.55 0 0  0.275 0.1 0  0.275 0.3 0  0.275 0 0  0.55 0.41 0  0 0.205 0  0.825 0 0  0.825 0.41 0  0.275 0.41 0  0.1 0.15 0  0.1875 0.1 0  0.1 0.25 0  0.1875 0.3 0  0.132322 0.2 0  0.241426 0.253518 0  0.241426 0.146482 0  0.264574 0.17974 0  0.264574 0.22026 0  0.138434 0.187348 0  0.153372 0.150948 0  0.148413 0.164094 0  0.176495 0.136535 0  0.22768 0.143571 0  0.138434 0.212652 0  0.148413 0.235906 0  0.176495 0.263465 0  0.22768 0.256429 0  0.23125 0.3 0  0.24769 0.24094 0  0.23125 0.1 0  0.24769 0.15906 0  0.26253 0.193641 0  0.190482 0.137872 0  0.166753 0.146661 0  0.157737 0.244461 0  0.190482 0.262128 0  0.203107 0.261264 0  0.253635 0.22977 0  0.203107 0.138736 0  0.253635 0.17023 0  0.261028 0.206206 0  0.167707 0.251809 0  0.143629 0.224191 0  0.215302 0.2591 0  0.270465 0.245894 0  0.215302 0.1409 0  0.270465 0.154106 0  0.284052 0.202587 0  0.14375 0.3 0  0.209375 0.3 0  0.225966 0.278501 0  0.209375 0.1 0  0.225966 0.121499 0  0.211613 0.273759 0  0.211613 0.126241 0  0.143629 0.175809 0  0.1 0.175 0  0.133484 0.164832 0  0.144491 0.249539 0  0.1 0.225 0  0.133484 0.235168 0  0.3625 0.3 0  0.25691 0.253381 0  0.25691 0.146619 0  0.277205 0.188698 0  0.184724 0.275712 0  0.237372 0.268285 0  0.184724 0.124288 0  0.237372 0.131715 0  0.197578 0.273149 0  0.193656 0.286994 0  0.197578 0.126851 0  0.193656 0.113006 0  0.122953 0.187671 0  0.118362 0.153758 0  0.155372 0.258107 0  0.122953 0.212329 0  0.118362 0.246242 0  0.276394 0.27264 0  0.276394 0.12736 0  0.280965 0.170013 0  0.253125 0.3 0  0.14375 0.1 0  0.253125 0.1 0  0.269489 0.26014 0  0.269489 0.13986 0  0.303639 0.184297 0  0.165625 0.3 0  0.134742 0.273113 0  0.257831 0.274737 0  0.255279 0.128499 0  0.3625 0.1 0  0.165625 0.1 0  0.162031 0.132368 0  0.134955 0.126405 0  0.149334 0.125568 0  0.142936 0.139597 0  0.12695 0.140259 0  0.242514 0.285501 0  0.242514 0.114499 0  0.1 0.125 0  0.117483 0.12555 0  0.11154 0.139776 0  0.121875 0.1 0  0.109143 0.1125 0  0.126805 0.114 0  0.220313 0.29129 0  0.351562 0.287369 0  0.207222 0.2866 0  0.220312 0.10871 0  0.1375 0 0  0.20625 0 0  0.207222 0.1134 0  0.11722 0.17118 0  0.1 0.1625 0  0.0778409 0.16875 0  0.0862762 0.15625 0  0 0.15375 0  0 0.1025 0  0.11722 0.22882 0  0.1 0.2375 0  0 0.3075 0  0.0862762 0.23125 0  0.0598995 0.222547 0  0.0860223 0.2125 0  0.289584 0.181469 0  0.300267 0.16446 0  0.163832 0.269071 0  0.149597 0.273325 0  0.1 0.275 0  0.268498 0.285953 0  0.31875 0.3 0  0.294154 0.254672 0  0.296875 0.3 0  0.293558 0.271845 0  0.285095 0.286799 0  0.324298 0.264316 0  0.307866 0.263745 0  0.317093 0.234901 0  0.315485 0.281219 0  0.316547 0.250625 0  0.344693 0.243731 0  0.331592 0.251147 0  0.35129 0.270663 0  0.338689 0.263683 0  0.340625 0.3 0  0.249849 0.264383 0  0.265097 0.11422 0  0.284688 0.156136 0  0.242188 0.324017 0  0.0856613 0.2625 0  0.132812 0.0612217 0  0.264062 0.0612217 0  0.198437 0.07598340000000001 0  0.0860223 0.1375 0  0.0794526 0.191089 0  0.285228 0.140397 0  0.298655 0.148737 0  0.31875 0.1 0  0.327335 0.15374 0  0.296875 0.1 0  0.312289 0.155283 0  0.313348 0.135607 0  0.321802 0.173916 0  0.298433 0.134116 0  0.112124 0.2625 0  0.127526 0.259083 0  0.121875 0.3 0  0.0682687 0.241503 0  0.1 0.2875 0  0.117762 0.28125 0  0.107813 0.3 0  0.103906 0.313849 0  0.0778409 0.28125 0  0.1375 0.41 0  0.0862762 0.29375 0  0.08886860000000001 0.24375 0  0.307812 0.338778 0  0.307812 0.292227 0  0.33216 0.279164 0  0.387888 0.266414 0  0.264063 0.31948 0  0.110937 0.07598340000000001 0  0.242188 0.07598340000000001 0  0.319914 0.11839 0  0.340625 0.1 0  0.334448 0.133793 0  0.329687 0.108539 0  0.346259 0.118491 0  0.360334 0.173636 0  0.327539 0.205033 0  0.132812 0.288712 0  0.362436 0.278836 0  0.368105 0.259418 0  0.4125 0.41 0  0.329687 0.324017 0  0.329687 0.292306 0  0.285938 0.318952 0  0.417187 0.338778 0  0.324481 0.14148 0  0.351562 0.106771 0  0.40625 0.1 0  0.341028 0.168342 0  0.319221 0.190479 0  0.335292 0.184501 0  0.305563 0.20794 0  0.220313 0.31948 0  0.132812 0.332772 0  0.0865876 0.311259 0  0.0598995 0.302453 0  0.0906541 0.343255 0  0.353543 0.255837 0  0.36574 0.237633 0  0.405007 0.254279 0  0.275795 0.352123 0  0.4125 0 0  0.35493 0.137394 0  0.366563 0.120618 0  0.35917 0.205246 0  0.198438 0.318952 0  0.0626109 0.263892 0  0.40625 0.3 0  0.354809 0.155936 0  0.386512 0.146872 0  0.373101 0.159939 0  0.384375 0.1 0  0.343394 0.19929 0  0.350682 0.185683 0  0.368101 0.189748 0  0.344016 0.221511 0  0.391108 0.213329 0  0.376279 0.204783 0  0.398843 0.182768 0  0.375804 0.222746 0  0.390665 0.196958 0  0.394004 0.23518 0  0.359883 0.222828 0  0.419908 0.204359 0  0.404243 0.204783 0  0.412615 0.224526 0  0.20625 0.41 0  0.165625 0.325257 0  0.0347982 0.244954 0  0.379558 0.247154 0  0.34165 0.147603 0  0.372264 0.136992 0  0.388988 0.121989 0  0.373437 0.108554 0  0.351562 0.31948 0  0.391367 0.16527 0  0.399572 0.223324 0  0.452011 0.227371 0  0.40877 0.239392 0  0.431491 0.237337 0  0.421224 0.250459 0  0.449619 0.262098 0  0.418865 0.276779 0  0.437063 0.252274 0  0.415673 0.263227 0  0.430988 0.266772 0  0.402767 0.273419 0  0.452967 0.244883 0  0.428125 0.3 0  0.408502 0.286186 0  0.384375 0.3 0  0.392267 0.285807 0  0.465927 0.219339 0  0.43489 0.283846 0  0.376424 0.286289 0  0.625 0.3 0  0.473533 0.205186 0  0.461713 0.255517 0  0.5375 0.3 0  0.465725 0.235405 0  0.44631 0.201425 0  0.471875 0.3 0  0.494307 0.227729 0  0.459448 0.206736 0  0.462294 0.180792 0  0.478933 0.227536 0  0.486793 0.21381 0  0.486322 0.251373 0  0.50065 0.215318 0  0.54005 0.175389 0  0.474633 0.189893 0  0.512916 0.208697 0  0.49531 0.199967 0  0.475889 0.175275 0  0.625 0.1 0  0.459311 0.153933 0  0.513645 0.242704 0  0.392892 0.248539 0  0.374815 0.271913 0  0.365974 0.14871 0  0.395312 0.109184 0  0.417061 0.123981 0  0.483196 0.277003 0  0.381967 0.179632 0  0.429898 0.219374 0  0.433473 0.206165 0  0.43149 0.181038 0  0.444208 0.215487 0  0.472985 0.247309 0  0.49375 0.3 0  0.475579 0.262714 0  0.49916 0.274293 0  0.501175 0.184809 0  0.514164 0.225681 0  0.543648 0.214977 0  0.5341630000000001 0.23481 0  0.527396 0.216171 0  0.5375 0.1 0  0.534548 0.202315 0  0.561545 0.192513 0  0.5494289999999999 0.201221 0  0.570923 0.218346 0  0.412582 0.149833 0  0.489327 0.264745 0  0.502439 0.254775 0  0.462391 0.271166 0  0.496775 0.241732 0  0.5294410000000001 0.268606 0  0.482812 0.291099 0  0.46879 0.285038 0  0.452663 0.284065 0  0.51789 0.257882 0  0.53408 0.252026 0  0.560142 0.243543 0  0.545708 0.243474 0  0.547532 0.229019 0  0.55282 0.265323 0  0.398971 0.153424 0  0.400349 0.135684 0  0.410135 0.168145 0  0.428823 0.161323 0  0.415266 0.183779 0  0.329687 0.0810483 0  0.395312 0.0612217 0  0.373437 0.318952 0  0.439062 0.324017 0  0.561816 0.229354 0  0.585029 0.239287 0  0.431827 0.139854 0  0.446796 0.168929 0  0.351562 0.07598340000000001 0  0.395313 0.318944 0  0.54337 0.150762 0  0.460937 0.31948 0  0.418412 0.137529 0  0.428125 0.1 0  0.442783 0.152332 0  0.450742 0.134294 0  0.373437 0.0805201 0  0.384383 0.342558 0  0.482812 0.318952 0  0.429239 0.127457 0  0.444274 0.117405 0  0.426548 0.113815 0  0.49375 0.1 0  0.488954 0.113984 0  0.457973 0.121842 0  0.471621 0.137346 0  0.515625 0.325257 0  0.48125 0.41 0  0.417187 0.07598340000000001 0  0.496363 0.126778 0  0.479043 0.155715 0  0.439062 0.0805201 0  0.481795 0.126919 0  0.471875 0.1 0  0.489227 0.142159 0  0.515625 0.1 0  0.520062 0.147117 0  0.501244 0.161791 0  0.505431 0.112984 0  0.505344 0.14029 0  0.526563 0.119081 0  0.5181750000000001 0.131908 0  0.539868 0.136937 0  0.460937 0.108383 0  0.474242 0.114415 0  0.460937 0.0810483 0  0.487841 0.167168 0  0.526563 0.0612217 0  0.526563 0.106406 0  0.537619 0.112743 0  0.58125 0.1 0  0.559375 0.1 0  0.482812 0.08105569999999999 0  0.471883 0.0587655 0  0.570312 0.129396 0  0.548437 0.07598340000000001 0  0.504687 0.08105569999999999 0  0.49375 0.0470127 0  0.570312 0.112663 0  0.592798 0.12103 0  0.553986 0.12103 0  0.570312 0.0805201 0  0.48125 0 0  0.114787 0.2 0  0.160769 0.284765 0  0.175816 0.288361 0  0.162602 0.116048 0  0.154687 0.07598340000000001 0  0.176562 0.0805201 0  0.0598995 0.147547 0  0.307812 0.109924 0  0.291279 0.117157 0  0.278491 0.112989 0  0.285937 0.07598340000000001 0  0.307812 0.0805201 0  0.296928 0.196743 0  0.318141 0.218507 0  0.330208 0.227509 0  0.301397 0.225668 0  0.302706 0.241401 0  0.292574 0.21424 0  0.282762 0.230935 0  0.284351 0.244775 0  0.269553 0.23261 0  0.278572 0.217242 0  0.226924 0.342606 0  0.446928 0.185396 0  0.515625 0.3 0  0.504687 0.288879 0  0.515256 0.276534 0  0.529479 0.285328 0  0.58125 0.3 0  0.541969 0.272936 0  0.559375 0.3 0  0.556796 0.282529 0  0.543473 0.287206 0  0.581429 0.267774 0  0.566728 0.271171 0  0.570869 0.255585 0  0.577404 0.283865 0  0.603125 0.3 0  0.597531 0.28035 0  0.570312 0.338778 0  0.592188 0.292492 0  0.603513 0.256094 0  0.614063 0.286265 0  0.610329 0.27064 0  0.632708 0.251285 0  0.657223 0.261594 0  0.618789 0.257807 0  0.614188 0.22987 0  0.630935 0.265614 
[...]
<PointData  Vectors="v"> 
	<DataArray  type="Float64"  Name="v"  NumberOfComponents="3" format="ascii">
0.0 0.0 0.0 0.0 0.0 0.0 0.0 0.0 0.0 0.0 0.0 0.0 0.7986587968036898 -0.19056396520338326 0.0 0.8400517116350343 0.19660352804271167 0.0 1.0760727554490357 -0.043185901054018316 0.0 0.8884751507294131 -0.005115472448153817 0.0 0.0 0.0 0.0 0.0 0.0 0.0 0.0 0.0 0.0 0.0 0.0 0.0 0.0 0.0 0.0 0.0 0.0 0.0 0.0 0.0 0.0 0.0 0.0 0.0 0.0 0.0 0.0 0.0 0.0 0.0 0.0 0.0 0.0 0.0 0.0 0.0 0.0 0.0 0.0 0.0 0.0 0.0 0.0 0.0 0.0 0.0 0.0 0.0 0.0 0.0 0.0 0.0 0.0 0.0 0.0 0.0 0.0 0.0 0.0 0.0 0.0 0.0 0.0 0.0 0.0 0.0 0.0 0.0 0.0 0.0 0.0 0.0 0.0 0.0 0.0 0.0 0.0 0.0 0.0 0.0 0.0 0.0 0.0 0.0 0.0 0.0 0.0 0.0 0.0 0.0 0.0 0.0 0.0 0.0 0.0 0.0 0.0 0.0 0.0 0.7648956311090225 -0.00634664932910328 0.0 1.1594287643266412 0.10327885704805342 0.0 1.2741828114652662 -0.14520446583015956 0.0 0.0 0.0 0.0 1.3056294665205024 -0.06695023252035483 0.0 1.3102251408542998 0.09565189655923208 0.0 0.0 0.0 0.0 0.0 0.0 0.0 1.0 0.0 0.0 0.0 0.0 0.0 0.0 0.0 0.0 0.0 0.0 0.0 0.8482570542758785 -0.23229679780389587 0.0 1.1580983481751277 -0.3006270438056221 0.0 0.8670195620341719 0.22124469138682398 0.0 1.1658539453072285 0.3087872047706612 0.0 0.43211621965342245 -0.010048382349134022 0.0 0.16339212741548587 0.025495357453807675 0.0 0.17702068559151676 -0.023864351167717124 0.0 -0.0464039609792781 -0.08128097085294524 0.0 -0.048864590574719716 0.0466200543817594 0.0 0.33910526440185584 -0.2881993951454915 0.0 0.8768527009463131 -0.6760749808414727 0.0 0.6539259464992128 -0.6990190959502497 0.0 1.2486199494365275 -0.6044013448626928 0.0 0.31032333883288604 0.004035717843830746 0.0 0.3330352246693915 0.26379563373694387 0.0 0.6502706439612119 0.6679039567119928 0.0 1.2171579134274193 0.6015007913088957 0.0 0.28748188975295885 0.0008018168343752232 0.0 1.2798180208709415 0.19511338758329905 0.0 -0.02051070634708113 0.04807291123275213 0.0 1.2762500163881123 -0.17105437512651858 0.0 -0.015868791319081085 -0.05861794668789445 0.0 -0.036638820764213716 -0.046417648792072774 0.0 1.2327620712807348 -0.39999037982268526 0.0 1.1338299235241027 -0.7339029640051485 0.0 0.8677553907524695 0.7737785296432507 0.0 1.2258884628946571 0.3975837230512118 0.0 0.904202183245037 0.16418163805314406 0.0 -0.036407840401624376 0.056924786492219846 0.0 0.9268459590249452 -0.16082554833453747 0.0 -0.03929671114185602 -0.07996613079660257 0.0 -0.029930317219989705 0.0019265925149320813 0.0 1.0569379055480101 0.7251115787560509 0.0 0.4459496743945515 0.5268442856170684 0.0 0.5326074112164011 0.03201015998603773 0.0 0.06737657989275182 0.03913043236577587 0.0 0.5540275885548891 -0.03011536553165438 0.0 0.0923563194112888 -0.059926094546492246 0.0 -0.1112152740937665 -0.008657460045671493 0.0 0.9669090638409193 0.29649424417307996 0.0 1.2494787072036453 0.24687763450023129 0.0 1.2903415642273113 0.20463367975846514 0.0 1.2293830646927237 -0.24101543409652226 0.0 1.300628440408781 -0.19378833593451353 0.0 1.2992049674489927 0.25460411020679924 0.0 1.3156046391524012 -0.2444527402512876 0.0 0.4520421319644605 -0.5557415971707833 0.0 0.8066336466049565 -0.14305810933926721 0.0 0.6811666841245265 -0.42397390272045177 0.0 0.8886428404862549 0.5879387429965117 0.0 0.8025535521717612 0.13640040207285067 0.0 0.6826330106814259 0.4135573644694889 0.0 1.2836622824484596 -0.028067890418562842 0.0 0.18645112151323856 0.02794184822740449 0.0 0.21790099547734001 -0.031005234619475637 0.0 -0.0837102995497059 -0.053264933698217574 0.0 1.2984070632769908 0.4275419092588539 0.0 0.869416201356548 0.06739484650497615 0.0 1.3025784454348865 -0.4331100163858074 0.0 0.9084061979759718 -0.05888245465152531 0.0 1.3283540980095134 0.3599444525878172 0.0 1.2669999610410272 0.34575490266666675 0.0 1.3344207920545896 -0.3562544659261024 0.0 1.2656577372722604 -0.3252310391261623 0.0 0.589249544667234 -0.16640440601745923 0.0 0.8048975127515557 -0.3333132496976376 0.0 1.028211559169785 0.5935083344789497 0.0 0.5956720171911308 0.1444408464577906 0.0 0.8176151881361805 0.32364660499924186 0.0 0.8592500264399069 0.03492101449382761 0.0 0.9257526136281385 -0.023473350299886543 0.0 -0.0309440214651589 -0.07271103812235015 0.0 1.3059421241087248 0.13744994797671997 0.0 0.93654562052084 -0.3062678233669085 0.0 1.2952793763387567 -0.11296686755143294 0.0 0.3986480192374882 0.021833581725279712 0.0 0.4566190122416954 -0.02062099027522029 0.0 -0.12159746503318453 -0.03492279073878184 0.0 1.0597538850959807 0.3221052814566971 0.0 0.9504017070585319 0.37720884294267004 0.0 1.0184933265477272 0.07017985743629197 0.0 0.9393685575052151 -0.04633790078401069 0.0 1.2635028260765424 0.07882414779961952 0.0 1.036389564159264 -0.3179112011876619 0.0 1.102210004257342 -0.559739513508643 0.0 0.9428195284767231 -0.3817573759405171 0.0 1.015311586642003 -0.4262858530582832 0.0 0.9504313771395629 -0.5407573912520378 0.0 0.8766418734611874 -0.40450514338206717 0.0 1.304751275175011 0.15835507106760227 0.0 1.308700392473132 -0.14228552880085277 0.0 0.8575244619065993 -0.232643220259938 0.0 0.8869847615769841 -0.3050301647169209 0.0 0.8604151089003644 -0.2973701688260009 0.0 0.8554105144427308 -0.24690834864804684 0.0 0.8591300082582445 -0.24666951125244582 0.0 0.904258641653773 -0.31058917652434437 0.0 1.3125210323967396 0.22923772653660043 0.0 1.1577883985917818 -0.019002429299536615 0.0 1.3236029892970136 0.28917164414417035 0.0 1.3111828923522155 -0.2060193309383605 0.0 0.0 0.0 0.0 0.0 0.0 0.0 1.3149808711712971 -0.27419579700205077 0.0 0.7209267722906997 -0.27161157718887274 0.0 0.8255595614458411 -0.2127513893980759 0.0 0.8741622507945491 -0.11276473551346607 0.0 0.8663192659065653 -0.16482487537321058 0.0 0.9375 0.0 0.0 0.7500000000000001 0.0 0.0 0.7266700619928511 0.2588922516607686 0.0 0.8273354235716949 0.1931271583125197 0.0 0.7499999999999999 0.0 0.0 0.8720695318179724 0.12155550750495336 0.0 0.9299617674346299 0.038662726839447846 0.0 0.8507908520015867 0.03991085482090977 0.0 -0.09063596397607478 -0.05437003468358984 0.0 0.02329527967410452 -0.04740035172296917 0.0 1.1349882312696271 0.5355461881756939 0.0 1.0303128031313082 0.4565284716959458 0.0 0.8827677833606161 0.23542272190286476 0.0 1.2415835909552946 0.08767722250641266 0.0 1.2966717057168267 0.026248900250345795 0.0 0.27011022509676824 0.014430799169666672 0.0 1.3099690991615156 0.057409222918251304 0.0 0.7992634816023438 0.015490311089658385 0.0 1.2188940342331749 0.05834040560058601 0.0 0.5549131291586502 -0.0025559940891271013 0.0 0.5247071933685686 0.0045490848707141224 0.0 -0.009649527042554937 0.03199815514774479 0.0 1.051955760841355 0.00923046561680703 0.0 0.21271974666096355 0.016383332677486543 0.0 0.13373789538198017 0.029241890751958134 0.0 0.24348713247524195 0.01608167391126454 0.0 0.7584093172538345 -0.014335926181324614 0.0 0.5500980881898664 -0.0033298286262743206 0.0 1.2933303939300977 -0.004289922942395884 0.0 0.5981180245528587 0.028016688969620996 0.0 1.2727456111260524 -0.07966075558386466 0.0 0.10468744966775452 -0.0523912057654999 0.0 1.149471017179711 0.11793835524560005 0.0 0.8845737511260634 0.171832365504106 0.0 0.6977198112381672 -0.15653685380401294 0.0 1.0443321217105939 -0.051942140409985876 0.0 1.0201556598345005 -0.18216327033415275 0.0 0.867398205344341 -0.18156711248011093 0.0 0.8780093209074613 -0.02935766967677043 0.0 0.45776860297259686 -0.017192906695862608 0.0 0.2663049315139563 -0.022938593309345164 0.0 1.2952823802129512 0.019561275840037765 0.0 0.21922024022791267 0.00290756830031022 0.0 1.3081494954063377 -0.02342973062068674 0.0 0.1658680685903259 -0.020139532569036018 0.0 0.6504987872570248 0.022975351646306947 0.0 -0.06511416357515591 -0.018605242796646597 0.0 0.675734375849772 0.005576208408670276 0.0 0.8829529764800449 0.28716609976296026 0.0 0.8860854800271374 0.4007568145897451 0.0 0.8849034728173094 0.25498197822934093 0.0 0.9136979329387764 0.10419557910464652 0.0 0.8660456046363733 0.21240518203071238 0.0 0.9075963160420125 0.2908359410555587 0.0 0.8570159219951915 0.22097040884369384 0.0 0.8003567945317895 0.17181222220226197 0.0 0.8675168781497652 0.1536359914004043 0.0 0.0 0.0 0.0 0.8414143307420107 0.16751285830040236 0.0 0.8730986720538171 0.16406155319934118 0.0 1.12173140510616 0.019643563505135832 0.0 1.256796299600706 0.03158064958284706 0.0 0.986364060810266 -0.005813349435063529 0.0 0.7135720343673767 -0.024052013778350097 0.0 1.212239442072493 0.09325319373783132 0.0 0.7174488759995507 -0.1656595456680929 0.0 1.1253428063259558 -0.1059461336703891 0.0 1.1303197494626165 0.030426550400972065 0.0 1.2856937229713448 0.05323548182659277 0.0 0.7364716263420831 0.05487795406326087 0.0 1.2625304404077733 0.04343442054863943 0.0 1.1209151125284145 0.07375506842957323 0.0 -0.06117627777760113 0.0435485110874252 0.0 -0.19477745433030388 0.018933749147316405 0.0 0.9483429407432266 0.32436536263603205 0.0 0.9858986598295771 -0.028875202249593453 0.0 0.4929681486541352 0.0011969207213553177 0.0 0.0 0.0 0.0 1.2271749241230363 0.00630053561747171 0.0 1.2416377531846177 0.002226362733487944 0.0 1.2326848376654822 0.06571221518815522 0.0 1.1255111071193484 -0.07965637762802141 0.0 0.4984251151189284 0.021150473125112996 0.0 1.2532275528876193 0.0760141729766117 0.0 1.2116833972602854 0.10985260117625142 0.0 0.00023091155872109628 0.01221907254081477 0.0 -0.16788766716755138 -0.00980190604966881 0.0 -0.1552867899089136 0.004266500872182066 0.0 -0.15688360521984399 0.008440570278289723 0.0 1.1498134030151281 0.16688631986626437 0.0 0.7715735814237827 0.18220280799550773 0.0 0.776864862300246 0.14504593747738304 0.0 0.7854741816721416 0.1008686389797872 0.0 0.617068346061417 0.1030105584265981 0.0 0.38095133600833503 0.009670612160800727 0.0 0.07090775305354691 0.04710070522536465 0.0 0.4786959116000439 -0.0001714789248006841 0.0 0.9916673304584168 0.04617548383796998 0.0 0.0 0.0 0.0 0.6667247119777038 0.07934171921464978 0.0 1.074222365112564 0.1040747482893697 0.0 -0.22352621859989655 0.05403270933701677 0.0 1.0775750012176628 0.22188915677420767 0.0 0.9009370901627145 0.10650968113822988 0.0 1.2875766051917996 -0.08290458029322087 0.0 0.219155314919542 0.04710059795727402 0.0 0.4678607259825905 0.11122182549699167 0.0 0.16369703325632237 0.07415247425455426 0.0 1.2416073468613607 0.09970400576572483 0.0 -0.21591912626642082 0.028900268506708317 0.0 -0.17244468472981436 0.028291316243679594 0.0 -0.2048139755880153 0.05798618694828813 0.0 -0.13080606883185755 0.04428034515866852 0.0 -0.18757798326002129 0.08660167245073842 0.0 -0.2314340261213946 0.07442734339023659 0.0 -0.15501546013932282 0.10036205234645425 0.0 -0.11002934538889911 0.06919699651622581 0.0 -0.23574248034991357 0.08918570354359714 0.0 0.08394115977524978 0.05796730340480002 0.0 -0.11732371039165723 0.05654252733060201 0.0 -0.21922404998993486 0.10574842122774171 0.0 -0.22775039961422888 0.1007648638093559 0.0 -0.03984452917836697 0.07744764902136486 0.0 0.0 0.0 0.0 0.9352837239377114 0.22836787083805632 0.0 0.9516712233576166 0.037205982959880944 0.0 0.2598473861793742 0.030212803537021236 0.0 0.37747671647193975 0.037340340455322196 0.0 0.7003113729120891 0.10503281819655542 0.0 1.0443590170092465 0.12627812224479074 0.0 1.2222012932331272 0.10368891362624971 0.0 1.2576969429181282 -0.014215629319860564 0.0 0.08319652110660719 0.09802362357000702 0.0 -0.07737260207959464 0.0801475294244363 0.0 0.11193598151046102 0.019767719662319074 0.0 0.19318392096178166 0.0429522977506868 0.0 0.22343012955826064 0.02535425426839968 0.0 0.4521845046836526 -0.005375904537383768 0.0 0.8057997190468815 -0.1002660754944419 0.0 1.0241698110473345 -0.08311883100489742 0.0 0.5496758894127896 -0.03873367097020214 0.0 0.7181126924583128 -0.04123556984499747 0.0 0.84646600191829 -0.0764188170235271 0.0 0.9198356521413555 -0.05414596933407955 0.0 0.45302223377123674 -0.04413843945754306 0.0 1.2834994939094464 -0.11195806777649947 0.0 1.1689484108477637 -0.0818949626841855 0.0 1.2864383805070991 -0.053113042001053955 0.0 1.1505041536884042 -0.059066972334334916 0.0 0.02579461494071568 0.015165161049708897 0.0 1.1702901428846657 -0.12223917585882216 0.0 1.1476081885849385 -0.044605586911473066 0.0 1.0144418547976415 -0.06316117874273725 0.0 -0.12266142313088445 0.03532310541944198 0.0 0.7090923973749323 -0.10589816893845468 0.0 1.1477270319670854 -0.19349763199783696 0.0 0.30956853610962876 -0.040825774884293065 0.0 -0.19689762650808637 0.09097291539614706 0.0 1.254735162866938 -0.1737878072019149 0.0 0.2690894486273007 -0.09527109537452513 0.0 -0.1429694193415178 0.061020084860954185 0.0 -0.10719397810557803 0.09106126745051021 0.0 0.20852956807929138 -0.05306780803750063 0.0 0.011240366638003534 -0.024816689306146413 0.0 0.7095738443623634 -0.15244343860464568 0.0 0.07859055634092309 -0.0703484570895117 0.0 0.08558079957065119 -0.06921369277210908 0.0 -0.15772297931777093 0.06325271088518014 0.0 0.027024308641042043 -0.08604381076282357 0.0 -0.10403333877375036 -0.011266065362668923 0.0 -0.02941496610890228 0.07425498483664461 0.0 1.1367791580640116 0.13687567168778084 0.0 0.35836592486353774 0.1161834960917169 0.0 0.6184672858035084 -0.1909766212846422 0.0 0.3228095889399712 0.025107853997934176 0.0 0.8226548216363261 -0.02551543424975004 0.0 0.3944621263643591 0.07849983332323711 0.0 1.1923514768098422 0.1210060140819006 0.0 0.9948868629300088 0.13960106108091136 0.0 1.129630552778587 -0.1989015707557359 0.0 -0.12528583797401122 0.07839023389856772 0.0 -0.07211662514857743 0.0763533405761477 0.0 -0.19486225112259128 0.09758384421179678 0.0 -0.12585586148052244 0.11843671409216085 0.0 -0.08936614985948182 0.07030067963861865 0.0 0.5794446434347579 -0.10493416522693229 0.0 1.2260411613573448 -0.19105178487986124 0.0 0.89795109041381 -0.16062788061818914 0.0 1.107552785442768 -0.22022356565565096 0.0 -0.09032085170672906 0.0034206834627919474 0.0 0.2978823906189751 -0.14127678838422608 0.0 0.19764594557960746 -0.1749873607822395 0.0 0.523699351686221 -0.2038091397254047 0.0 0.1748701523889778 -0.14583145128493372 0.0 1.136915429703348 0.07228957960574363 0.0 0.016687542180211037 -0.12438445179492542 0.0 0.04083970737090212 -0.1543221255760764 0.0 0.04542780176107247 -0.15482780490668607 0.0 0.29481165964687095 -0.2072506257052294 0.0 0.4255822440545393 0.132320678932808 0.0 0.9646633762587964 -0.1956662531845672 0.0 0.817456806457933 -0.20043520733252385 0.0 1.0195314348830329 -0.15318123264057812 0.0 0.5511533930871235 -0.14668889557203765 0.0 1.0464374118736368 -0.24020852068886228 0.0 1.2312026163724752 -0.19733203411384953 0.0 1.2039237801874303 -0.18054257447802918 0.0 1.186533832543546 -0.15208280681546604 0.0 0.9001337162071269 -0.22867963390705304 0.0 0.8243877814543477 -0.232692991196533 0.0 0.7094986059828647 -0.22706374483469374 0.0 0.6961197559652521 -0.2293067497587172 0.0 0.4431037720310661 -0.20789019469292538 0.0 0.9999560779423913 -0.23227405289609734 0.0 0.32864963970776906 0.11783773774636219 0.0 0.7553824165163081 0.1345357799041219 0.0 0.047106271959482825 0.1170972404284382 0.0 0.18557128789216537 0.12785288736406633 0.0 -0.16049261056945227 0.11193345694187569 0.0 1.2195342502802495 0.029994751080299573 0.0 1.0505178889114561 0.07060054003393626 0.0 1.2627260310723836 -0.04051144123242995 0.0 1.2088852507973022 -0.11721074545421165 0.0 0.4713223346723074 -0.21687389639067858 0.0 0.64177529459727 -0.20596050487416892 0.0 0.6674318112896104 0.13838067977205618 0.0 0.05370106852262666 0.11783905183033783 0.0 1.1784210373395432 0.052933743384853564 0.0 1.2582193577772878 -0.0655958603887427 0.0 0.5317823828658121 0.0019041616122923368 0.0 1.2117700187784852 -0.14403350919812236 0.0 0.7173854142611391 0.1391256384940696 0.0 1.1840621136527376 0.11101736925682704 0.0 0.38485494677218873 0.12904274140684988 0.0 0.7888466885132466 0.1281441992068968 0.0 1.192771974893986 0.07368070357864245 0.0 1.1136734498688785 -0.050382514021317985 0.0 1.1848236342734468 -0.16139656818339393 0.0 0.9265453689781793 0.13694547846965616 0.0 1.06605139856275 0.12427126928616722 0.0 1.1224532838074206 0.12906355021171023 0.0 1.1346904871223826 0.07985145711757193 0.0 1.0765362045002675 0.08589556901692 0.0 1.002310946308476 0.11590061857670554 0.0 0.7225481841056642 0.10584147591066895 0.0 1.0844999115155052 -0.1564062713141146 0.0 0.0 0.0 0.0 1.1281921282327436 0.08765500912847372 0.0 0.9217852513237406 0.07892451394955613 0.0 0.3296733867505532 0.08880612300702934 0.0 1.1308536787340193 0.09048452867602512 0.0 0.9185297718273735 0.09398453322339648 0.0 1.1436045650583 0.09090478734793418 0.0 0.6277133019403663 0.08216729838773243 0.0 1.1331471889631894 0.07166266590843107 0.0 0.5556404837483567 0.03475089795652125 0.0 0.2267093643285835 0.042393983340758244 0.0 1.082520055034862 0.07421244162480804 0.0 0.6791523375635513 0.06329601997442318 0.0 1.0373696414005062 0.06247929349686937 0.0 0.8502120157128359 0.05543572577348116 0.0 0.7908765418897636 0.03588633911004628 0.0 1.127386004822147 0.10444336143463369 0.0 1.0762988544459493 0.09837453637183326 0.0 1.113531294809457 0.08643027409710276 0.0 0.11150722074509302 0.06330059019039026 0.0 0.944898141270784 0.06046650604850767 0.0 1.1226656955406744 0.06873349725318008 0.0 1.0984583879432792 0.06544002443530345 0.0 1.1461282823717078 0.0956541510872376 0.0 1.1413008201805963 0.08004890912932144 0.0 1.0984812733381564 0.07784043288774266 0.0 0.9690774043897232 0.06270111379377813 0.0 0.9758536386990727 0.05586108832535134 0.0 1.0504904860561581 0.07274013705468375 0.0 1.0920753960034866 0.07148001324792805 0.0 0.8188613307136703 0.05004188813909107 0.0 1.1248138799136083 0.08096608373930837 0.0 1.1020834304668528 0.09338888838803945 0.0 1.0462850904289172 0.06070732477519443 0.0 1.0705222541800083 0.0855619859556468 0.0 0.0 0.0 0.0 0.6487454692115688 -0.011047357421232801 0.0 1.0882171867147652 0.4082869920595203 0.0 1.1798801837371966 0.38565520565681466 0.0 1.1017041494009547 -0.40331799224219345 0.0 0.8616992378157929 -0.20703142796461949 0.0 0.9736766161250849 -0.22400542540787055 0.0 0.8941027738039994 -0.08550294709954416 0.0 1.2732690277034637 0.0013390255803685024 0.0 1.1854061620495255 -0.017276888032737872 0.0 1.2621066227527746 -0.04830661703875515 0.0 1.1759674340250426 -0.028175270063922585 0.0 1.215236017846176 0.0017822066251381211 0.0 -0.1421537720202426 -0.018314806066686132 0.0 -0.13699199504223808 0.0279627622096796 0.0 -0.07749645482026363 0.03665830959566977 0.0 -0.08265674677560671 0.031977526520587045 0.0 0.05336049078470913 0.03078597956127242 0.0 -0.11796951367017923 0.01896553579739903 0.0 -0.044631083861570234 0.04385363349264875 0.0 0.07688000691053135 0.03461029987887306 0.0 -0.03691363765911824 0.05480074224606316 0.0 -0.08316411108306543 0.031163439427398448 0.0 0.9864525155632363 0.1204782140508722 0.0 -0.16047043331153832 0.10958841643368625 0.0 1.1886532474024962 -0.1983936244145815 0.0 1.2014281089055874 -0.21786562161109702 0.0 1.124404211769886 -0.23155118050100962 0.0 1.1564987527567092 -0.22410662702210782 0.0 1.0698422913243149 -0.13945579052089604 0.0 1.0746090290310395 -0.23304342615572393 0.0 1.104458263339191 -0.17024582249422934 0.0 1.1040266203739446 -0.2057625805896283 0.0 1.136559248524372 -0.21086062784877135 0.0 0.9905592006211279 -0.18775349208583597 0.0 1.0344863023327915 -0.20828373900524616 0.0 0.8809579287132374 -0.21804847945172467 0.0 1.0741990542499815 -0.1748497241990959 0.0 1.0366086882191332 -0.10338507890633608 0.0 1.0334601457226815 -0.1401369444636416 0.0 0.8925396297292655 -0.09612799827475688 0.0 1.0595417811667556 -0.13198385617268305 0.0 0.8538502581304911 -0.16028870371840873 0.0 1.0270586578215501 -0.09746299159979405 0.0 0.9714196872002498 -0.12636061182504615 0.0 0.7502586936941913 -0.1095265038570771 0.0 0.8236269601096735 -0.044062407419130895 0.0 0.8509093497348583 -0.12561865160147043 0.0 0.4610712589028011 -0.17933363624502885 0.0 0.9054781952424161 -0.08846280037066342 0.0 0.6596452623081712 -0.1473396141697363 0.0 0.9955356330665155 0.0010015270929023025 0.0 0.3579728763437647