<?xml version="1.0"?>
<VTKFile type="UnstructuredGrid"  version="0.1"  >
<UnstructuredGrid>
<Piece  NumberOfPoints="1289" NumberOfCells="2413">
<Points>
<DataArray  type="Float64"  NumberOfComponents="3"  format="ascii">0 0 0  0 0.41 0  2.2 0.41 0  2.2 0 0  0.1 0.1 0  0.1 0.3 0  0.8 0.3 0  0.8 0.1 0  0.25 0.2 0  0.248976 0.210065 0  0.245948 0.219718 0  0.241038 0.228563 0  0.234448 0.23624 0  0.226448 0.242432 0  0.217365 0.246888 0  0.207571 0.249423 0  0.197468 0.249936 0  0.187467 0.248404 0  0.17798 0.24489 0  0.169395 0.239539 0  0.162062 0.232569 0  0.156283 0.224265 0  0.152293 0.214968 0  0.150257 0.205058 0  0.150257 0.194942 0  0.152293 0.185032 0  0.156283 0.175735 0  0.162062 0.167431 0  0.169395 0.160461 0  0.17798 0.15511 0  0.187467 0.151596 0  0.197468 0.150064 0  0.207571 0.150577 0  0.217365 0.153112 0  0.226448 0.157568 0  0.234448 0.16376 0  0.241038 0.171437 0  0.245948 0.180282 0  0.248976 0.189935 0  1.1 0 0  1.1 0.41 0  0.1 0.2 0  0.45 0.1 0  0.45 0.3 0  0.55 0 0  0.275 0.1 0  0.275 0.3 0  0.275 0 0  0.55 0.41 0  0 0.205 0  0.825 0 0  0.825 0.41 0  0.275 0.41 0  0.1 0.15 0  0.1875 0.1 0  0.1 0.25 0  0.1875 0.3 0  0.132322 0.2 0  0.241426 0.253518 0  0.241426 0.146482 0  0.264574 0.17974 0  0.264574 0.22026 0  0.138434 0.187348 0  0.153372 0.150948 0  0.148413 0.164094 0  0.176495 0.136535 0  0.22768 0.143571 0  0.138434 0.212652 0  0.148413 0.235906 0  0.176495 0.263465 0  0.22768 0.256429 0  0.23125 0.3 0  0.24769 0.24094 0  0.23125 0.1 0  0.24769 0.15906 0  0.26253 0.193641 0  0.190482 0.137872 0  0.166753 0.146661 0  0.157737 0.244461 0  0.190482 0.262128 0  0.203107 0.261264 0  0.253635 0.22977 0  0.203107 0.138736 0  0.253635 0.17023 0  0.261028 0.206206 0  0.167707 0.251809 0  0.143629 0.224191 0  0.215302 0.2591 0  0.270465 0.245894 0  0.215302 0.1409 0  0.270465 0.154106 0  0.284052 0.202587 0  0.14375 0.3 0  0.209375 0.3 0  0.225966 0.278501 0  0.209375 0.1 0  0.225966 0.121499 0  0.211613 0.273759 0  0.211613 0.126241 0  0.143629 0.175809 0  0.1 0.175 0  0.133484 0.164832 0  0.144491 0.249539 0  0.1 0.225 0  0.133484 0.235168 0  0.3625 0.3 0  0.25691 0.253381 0  0.25691 0.146619 0  0.277205 0.188698 0  0.184724 0.275712 0  0.237372 0.268285 0  0.184724 0.124288 0  0.237372 0.131715 0  0.197578 0.273149 0  0.193656 0.286994 0  0.197578 0.126851 0  0.193656 0.113006 0  0.122953 0.187671 0  0.118362 0.153758 0  0.155372 0.258107 0  0.122953 0.212329 0  0.118362 0.246242 0  0.276394 0.27264 0  0.276394 0.12736 0  0.280965 0.170013 0  0.253125 0.3 0  0.14375 0.1 0  0.253125 0.1 0  0.269489 0.26014 0  0.269489 0.13986 0  0.303639 0.184297 0  0.165625 0.3 0  0.134742 0.273113 0  0.257831 0.274737 0  0.255279 0.128499 0  0.3625 0.1 0  0.165625 0.1 0  0.162031 0.132368 0  0.134955 0.126405 0  0.149334 0.125568 0  0.142936 0.139597 0  0.12695 0.140259 0  0.242514 0.285501 0  0.242514 0.114499 0  0.1 0.125 0  0.117483 0.12555 0  0.11154 0.139776 0  0.121875 0.1 0  0.109143 0.1125 0  0.126805 0.114 0  0.220313 0.29129 0  0.351562 0.287369 0  0.207222 0.2866 0  0.220312 0.10871 0  0.1375 0 0  0.20625 0 0  0.207222 0.1134 0  0.11722 0.17118 0  0.1 0.1625 0  0.0778409 0.16875 0  0.0862762 0.15625 0  0 0.15375 0  0 0.1025 0  0.11722 0.22882 0  0.1 0.2375 0  0 0.3075 0  0.0862762 0.23125 0  0.0598995 0.222547 0  0.0860223 0.2125 0  0.289584 0.181469 0  0.300267 0.16446 0  0.163832 0.269071 0  0.149597 0.273325 0  0.1 0.275 0  0.268498 0.285953 0  0.31875 0.3 0  0.294154 0.254672 0  0.296875 0.3 0  0.293558 0.271845 0  0.285095 0.286799 0  0.324298 0.264316 0  0.307866 0.263745 0  0.317093 0.234901 0  0.315485 0.281219 0  0.316547 0.250625 0  0.344693 0.243731 0  0.331592 0.251147 0  0.35129 0.270663 0  0.338689 0.263683 0  0.340625 0.3 0  0.249849 0.264383 0  0.265097 0.11422 0  0.284688 0.156136 0  0.242188 0.324017 0  0.0856613 0.2625 0  0.132812 0.0612217 0  0.264062 0.0612217 0  0.198437 0.07598340000000001 0  0.0860223 0.1375 0  0.0794526 0.191089 0  0.285228 0.140397 0  0.298655 0.148737 0  0.31875 0.1 0  0.327335 0.15374 0  0.296875 0.1 0  0.312289 0.155283 0  0.313348 0.135607 0  0.321802 0.173916 0  0.298433 0.134116 0  0.112124 0.2625 0  0.127526 0.259083 0  0.121875 0.3 0  0.0682687 0.241503 0  0.1 0.2875 0  0.117762 0.28125 0  0.107813 0.3 0  0.103906 0.313849 0  0.0778409 0.28125 0  0.1375 0.41 0  0.0862762 0.29375 0  0.08886860000000001 0.24375 0  0.307812 0.338778 0  0.307812 0.292227 0  0.33216 0.279164 0  0.387888 0.266414 0  0.264063 0.31948 0  0.110937 0.07598340000000001 0  0.242188 0.07598340000000001 0  0.319914 0.11839 0  0.340625 0.1 0  0.334448 0.133793 0  0.329687 0.108539 0  0.346259 0.118491 0  0.360334 0.173636 0  0.327539 0.205033 0  0.132812 0.288712 0  0.362436 0.278836 0  0.368105 0.259418 0  0.4125 0.41 0  0.329687 0.324017 0  0.329687 0.292306 0  0.285938 0.318952 0  0.417187 0.338778 0  0.324481 0.14148 0  0.351562 0.106771 0  0.40625 0.1 0  0.341028 0.168342 0  0.319221 0.190479 0  0.335292 0.184501 0  0.305563 0.20794 0  0.220313 0.31948 0  0.132812 0.332772 0  0.0865876 0.311259 0  0.0598995 0.302453 0  0.0906541 0.343255 0  0.353543 0.255837 0  0.36574 0.237633 0  0.405007 0.254279 0  0.275795 0.352123 0  0.4125 0 0  0.35493 0.137394 0  0.366563 0.120618 0  0.35917 0.205246 0  0.198438 0.318952 0  0.0626109 0.263892 0  0.40625 0.3 0  0.354809 0.155936 0  0.386512 0.146872 0  0.373101 0.159939 0  0.384375 0.1 0  0.343394 0.19929 0  0.350682 0.185683 0  0.368101 0.189748 0  0.344016 0.221511 0  0.391108 0.213329 0  0.376279 0.204783 0  0.398843 0.182768 0  0.375804 0.222746 0  0.390665 0.196958 0  0.394004 0.23518 0  0.359883 0.222828 0  0.419908 0.204359 0  0.404243 0.204783 0  0.412615 0.224526 0  0.20625 0.41 0  0.165625 0.325257 0  0.0347982 0.244954 0  0.379558 0.247154 0  0.34165 0.147603 0  0.372264 0.136992 0  0.388988 0.121989 0  0.373437 0.108554 0  0.351562 0.31948 0  0.391367 0.16527 0  0.399572 0.223324 0  0.452011 0.227371 0  0.40877 0.239392 0  0.431491 0.237337 0  0.421224 0.250459 0  0.449619 0.262098 0  0.418865 0.276779 0  0.437063 0.252274 0  0.415673 0.263227 0  0.430988 0.266772 0  0.402767 0.273419 0  0.452967 0.244883 0  0.428125 0.3 0  0.408502 0.286186 0  0.384375 0.3 0  0.392267 0.285807 0  0.465927 0.219339 0  0.43489 0.283846 0  0.376424 0.286289 0  0.625 0.3 0  0.473533 0.205186 0  0.461713 0.255517 0  0.5375 0.3 0  0.465725 0.235405 0  0.44631 0.201425 0  0.471875 0.3 0  0.494307 0.227729 0  0.459448 0.206736 0  0.462294 0.180792 0  0.478933 0.227536 0  0.486793 0.21381 0  0.486322 0.251373 0  0.50065 0.215318 0  0.54005 0.175389 0  0.474633 0.189893 0  0.512916 0.208697 0  0.49531 0.199967 0  0.475889 0.175275 0  0.625 0.1 0  0.459311 0.153933 0  0.513645 0.242704 0  0.392892 0.248539 0  0.374815 0.271913 0  0.365974 0.14871 0  0.395312 0.109184 0  0.417061 0.123981 0  0.483196 0.277003 0  0.381967 0.179632 0  0.429898 0.219374 0  0.433473 0.206165 0  0.43149 0.181038 0  0.444208 0.215487 0  0.472985 0.247309 0  0.49375 0.3 0  0.475579 0.262714 0  0.49916 0.274293 0  0.501175 0.184809 0  0.514164 0.225681 0  0.543648 0.214977 0  0.5341630000000001 0.23481 0  0.527396 0.216171 0  0.5375 0.1 0  0.534548 0.202315 0  0.561545 0.192513 0  0.5494289999999999 0.201221 0  0.570923 0.218346 0  0.412582 0.149833 0  0.489327 0.264745 0  0.502439 0.254775 0  0.462391 0.271166 0  0.496775 0.241732 0  0.5294410000000001 0.268606 0  0.482812 0.291099 0  0.46879 0.285038 0  0.452663 0.284065 0  0.51789 0.257882 0  0.53408 0.252026 0  0.560142 0.243543 0  0.545708 0.243474 0  0.547532 0.229019 0  0.55282 0.265323 0  0.398971 0.153424 0  0.400349 0.135684 0  0.410135 0.168145 0  0.428823 0.161323 0  0.415266 0.183779 0  0.329687 0.0810483 0  0.395312 0.0612217 0  0.373437 0.318952 0  0.439062 0.324017 0  0.561816 0.229354 0  0.585029 0.239287 0  0.431827 0.139854 0  0.446796 0.168929 0  0.351562 0.07598340000000001 0  0.395313 0.318944 0  0.54337 0.150762 0  0.460937 0.31948 0  0.418412 0.137529 0  0.428125 0.1 0  0.442783 0.152332 0  0.450742 0.134294 0  0.373437 0.0805201 0  0.384383 0.342558 0  0.482812 0.318952 0  0.429239 0.127457 0  0.444274 0.117405 0  0.426548 0.113815 0  0.49375 0.1 0  0.488954 0.113984 0  0.457973 0.121842 0  0.471621 0.137346 0  0.515625 0.325257 0  0.48125 0.41 0  0.417187 0.07598340000000001 0  0.496363 0.126778 0  0.479043 0.155715 0  0.439062 0.0805201 0  0.481795 0.126919 0  0.471875 0.1 0  0.489227 0.142159 0  0.515625 0.1 0  0.520062 0.147117 0  0.501244 0.161791 0  0.505431 0.112984 0  0.505344 0.14029 0  0.526563 0.119081 0  0.5181750000000001 0.131908 0  0.539868 0.136937 0  0.460937 0.108383 0  0.474242 0.114415 0  0.460937 0.0810483 0  0.487841 0.167168 0  0.526563 0.0612217 0  0.526563 0.106406 0  0.537619 0.112743 0  0.58125 0.1 0  0.559375 0.1 0  0.482812 0.08105569999999999 0  0.471883 0.0587655 0  0.570312 0.129396 0  0.548437 0.07598340000000001 0  0.504687 0.08105569999999999 0  0.49375 0.0470127 0  0.570312 0.112663 0  0.592798 0.12103 0  0.553986 0.12103 0  0.570312 0.0805201 0  0.48125 0 0  0.114787 0.2 0  0.160769 0.284765 0  0.175816 0.288361 0  0.162602 0.116048 0  0.154687 0.07598340000000001 0  0.176562 0.0805201 0  0.0598995 0.147547 0  0.307812 0.109924 0  0.291279 0.117157 0  0.278491 0.112989 0  0.285937 0.07598340000000001 0  0.307812 0.0805201 0  0.296928 0.196743 0  0.318141 0.218507 0  0.330208 0.227509 0  0.301397 0.225668 0  0.302706 0.241401 0  0.292574 0.21424 0  0.282762 0.230935 0  0.284351 0.244775 0  0.269553 0.23261 0  0.278572 0.217242 0  0.226924 0.342606 0  0.446928 0.185396 0  0.515625 0.3 0  0.504687 0.288879 0  0.515256 0.276534 0  0.529479 0.285328 0  0.58125 0.3 0  0.541969 0.272936 0  0.559375 0.3 0  0.556796 0.282529 0  0.543473 0.287206 0  0.581429 0.267774 0  0.566728 0.271171 0  0.570869 0.255585 0  0.577404 0.283865 0  0.603125 0.3 0  0.597531 0.28035 0  0.570312 0.338778 0  0.592188 0.292492 0  0.603513 0.256094 0  0.614063 0.286265 0  0.610329 0.27064 0  0.632708 0.251285 0  0.657223 0.261594 0  0.618789 0.257807 0  0.614188 0.22987 0  0.630935 0.265614 
[...]
<PointData  Vectors="v"> 
	<DataArray  type="Float64"  Name="v"  NumberOfComponents="3" format="ascii">
0.0 0.0 0.0 0.0 0.0 0.0 0.0 0.0 0.0 0.0 0.0 0.0 0.7980904656790913 -0.19035383291204463 0.0 0.8406557234601957 0.19671685822944923 0.0 0.9421699628360987 0.05917902857280681 0.0 0.9761824159571206 0.1079797137100658 0.0 0.0 0.0 0.0 0.0 0.0 0.0 0.0 0.0 0.0 0.0 0.0 0.0 0.0 0.0 0.0 0.0 0.0 0.0 0.0 0.0 0.0 0.0 0.0 0.0 0.0 0.0 0.0 0.0 0.0 0.0 0.0 0.0 0.0 0.0 0.0 0.0 0.0 0.0 0.0 0.0 0.0 0.0 0.0 0.0 0.0 0.0 0.0 0.0 0.0 0.0 0.0 0.0 0.0 0.0 0.0 0.0 0.0 0.0 0.0 0.0 0.0 0.0 0.0 0.0 0.0 0.0 0.0 0.0 0.0 0.0 0.0 0.0 0.0 0.0 0.0 0.0 0.0 0.0 0.0 0.0 0.0 0.0 0.0 0.0 0.0 0.0 0.0 0.0 0.0 0.0 0.0 0.0 0.0 0.0 0.0 0.0 0.0 0.0 0.0 0.7648977414182042 -0.005497421915169416 0.0 1.184760829865205 0.16950949159086323 0.0 1.2328935650338113 -0.07663568832370063 0.0 0.0 0.0 0.0 1.3085288343790409 -0.0777452191887164 0.0 1.3083238419055163 0.08286497843165304 0.0 0.0 0.0 0.0 0.0 0.0 0.0 1.0 0.0 0.0 0.0 0.0 0.0 0.0 0.0 0.0 0.0 0.0 0.0 0.8478006823949733 -0.2316172685514816 0.0 1.1569934061612057 -0.3038831199412143 0.0 0.8675778145668497 0.22186877970754093 0.0 1.167173136141423 0.30498790313539437 0.0 0.43211057919412715 -0.009792775791940406 0.0 0.17367059658537162 0.024182020127157117 0.0 0.16766849466799325 -0.025230791340403468 0.0 -0.04371289565560583 -0.08345080485869484 0.0 -0.051726847681417804 0.0445720332194539 0.0 0.3389609837677605 -0.28798564372523716 0.0 0.8759140224358899 -0.6764428078057158 0.0 0.6532640573236643 -0.6987682274041453 0.0 1.246186763815749 -0.6054282036955936 0.0 0.2998844074555313 0.0014170304285432201 0.0 0.33321467655007786 0.2640468444168617 0.0 0.6510611297335945 0.66813428867805 0.0 1.2199918598985964 0.600400292650315 0.0 0.2991298592008833 -0.002073450399012968 0.0 1.2800302469063243 0.18740308790713942 0.0 -0.017745314423568855 0.05168907494976817 0.0 1.2761724558132794 -0.17760250514202647 0.0 -0.018549965113788296 -0.05497800271755908 0.0 -0.035412012862659416 -0.04664044183870487 0.0 1.2259880016093978 -0.3999647638226599 0.0 1.1314354856455453 -0.7337300293267531 0.0 0.8693434509107626 0.7742790071062657 0.0 1.2337407146479726 0.39764964060647096 0.0 0.9158855097443735 0.16359179542503166 0.0 -0.03782045541978536 0.06223878623054757 0.0 0.9166388736184498 -0.1613886213124447 0.0 -0.037849292749291004 -0.07466524440211386 0.0 -0.03078250731402368 0.002922039801873973 0.0 1.059758610822294 0.7258093600465355 0.0 0.44641806777778825 0.5271856423958318 0.0 0.5451837698605875 0.03024933879451908 0.0 0.07764105129530369 0.03483990004944402 0.0 0.5428410310354819 -0.0317241805100273 0.0 0.0831055096224183 -0.06331600025276786 0.0 -0.11190271146465888 -0.02779383125631951 0.0 0.9679858085350785 0.2951452883112324 0.0 1.2506885790269764 0.24107065549109397 0.0 1.297852712685673 0.19858084790019645 0.0 1.2286136686079576 -0.24586705132662867 0.0 1.2946067973090793 -0.19914555971221454 0.0 1.306943598145556 0.2500259910539235 0.0 1.3092376308476252 -0.24850193216043756 0.0 0.45164206689249187 -0.5554199106734181 0.0 0.8064220840610338 -0.14223196653573422 0.0 0.6806709979274629 -0.42394927977704583 0.0 0.8898999501990009 0.5879023162940391 0.0 0.8028295219197047 0.1372279603709202 0.0 0.6833024353384874 0.41368809138867146 0.0 1.2482768628159064 -0.035892214030942324 0.0 0.20194920960254184 0.02721407276338384 0.0 0.20335821908509508 -0.03207194114623157 0.0 -0.08044523102529298 -0.06592237607332085 0.0 1.3016823428263182 0.42431737027238303 0.0 0.8869116679894332 0.06330253495198702 0.0 1.2999880543636155 -0.435778787373764 0.0 0.8935543567584979 -0.06271550576498117 0.0 1.3332787260373657 0.35599646398930623 0.0 1.2693779951812039 0.3414924327327588 0.0 1.3303142307728728 -0.3597280751860804 0.0 1.2637354161991807 -0.32894744746318033 0.0 0.5890383230682159 -0.16599704426298323 0.0 0.8043773675994468 -0.3329542232794652 0.0 1.0299973809198404 0.5929232127496092 0.0 0.5959631171103694 0.14485899636090308 0.0 0.8182634604906798 0.32399265242520076 0.0 0.8849870421860517 0.02431341515574374 0.0 0.9041164898605328 -0.03309502949525702 0.0 -0.027473272800321386 -0.08548522472841513 0.0 1.3052192764190664 0.12742616717488703 0.0 0.9356170610106903 -0.30732729094986916 0.0 1.29642592590689 -0.12155934806594966 0.0 0.4223280246656226 0.01664646933934103 0.0 0.4346114318636973 -0.025957903511819255 0.0 -0.1127370874505971 -0.07162710884116906 0.0 1.0609855156171522 0.31962437953441986 0.0 0.9515853898126136 0.37668438889661465 0.0 1.037538065250977 0.0631615334392155 0.0 0.9222841441360522 -0.05154772576605415 0.0 1.2986008733326717 0.07470287823997779 0.0 1.035368655423354 -0.3199766248141357 0.0 1.10057718138621 -0.5606906994364271 0.0 0.9417772580776709 -0.38221662099115256 0.0 1.0140217129501197 -0.42725072553226234 0.0 0.9493498637824102 -0.5409920257557106 0.0 0.8758476116066903 -0.4044450386702771 0.0 1.310020090791788 0.1499050878921618 0.0 1.3047606133140963 -0.14961990111191487 0.0 0.8569602720216495 -0.23217716550681305 0.0 0.886232073968264 -0.30498295542042847 0.0 0.8597774233424759 -0.29701902554941817 0.0 0.8546573118704963 -0.24726753048822853 0.0 0.8584420110897811 -0.24656683157560116 0.0 0.903413387386386 -0.31094517497652313 0.0 1.3144094807671716 0.22223443788318933 0.0 1.1406774035032468 -0.04153544609220365 0.0 1.3263692211719296 0.2835567138927312 0.0 1.3098022709514026 -0.21211356143928253 0.0 0.0 0.0 0.0 0.0 0.0 0.0 1.3129017940325463 -0.2791058895024256 0.0 0.7206208098119514 -0.2711208102481586 0.0 0.825209475061492 -0.21198664146419274 0.0 0.8740333522592917 -0.11167648124468185 0.0 0.8660027844827008 -0.163874914068906 0.0 0.9375 0.0 0.0 0.7500000000000001 0.0 0.0 0.7270632549136195 0.2594072595005671 0.0 0.827762690695271 0.1938720098093666 0.0 0.7499999999999999 0.0 0.0 0.8723254963881102 0.12253363958369005 0.0 0.9300681953128416 0.039815328624403686 0.0 0.8509300090984336 0.04096881371557925 0.0 -0.08418537823400156 -0.0765086867262687 0.0 0.028942991425919107 -0.07431080833334179 0.0 1.1370895333840194 0.5342246632623981 0.0 1.0318470317489439 0.4556103757646055 0.0 0.8833649515442683 0.23584038626205703 0.0 1.2506794416441667 0.07605639081871231 0.0 1.2848738733715253 0.008909809447893519 0.0 0.29143929514918526 -0.004763125819408563 0.0 1.304488619239411 0.04147097638851114 0.0 0.828235529147229 -0.0008633341913450943 0.0 1.2288642673338837 0.043266255863534435 0.0 0.5762505071840869 -0.038737131539604154 0.0 0.5530931463623906 -0.021648764314440527 0.0 -0.022659694363270307 -0.016180949362653758 0.0 1.0668371359624715 -0.014334634456499434 0.0 0.21893347592157486 -0.02222573469108614 0.0 0.11023863941494247 -0.03915949137592156 0.0 0.24090957162829016 -0.03425317337753787 0.0 0.7567683312009549 -0.05378439396815966 0.0 0.559492110794092 -0.04782278621779908 0.0 1.2717559455086078 -0.019838187785163015 0.0 0.618231041743138 0.024203017194450897 0.0 1.2660207379386241 -0.08927208012491514 0.0 0.09804910910721318 -0.0647972393176024 0.0 1.1464475466054778 0.11049666980683416 0.0 0.8850220383282139 0.17259254635063906 0.0 0.6970647168691249 -0.15720059996900534 0.0 1.0502147512969133 -0.057706340708694785 0.0 1.0204460328659961 -0.1854387435797915 0.0 0.8670003289966431 -0.18079718423944915 0.0 0.8779959251250327 -0.02824046651909998 0.0 0.4335309296193262 -0.02826653861060207 0.0 0.2529635868343346 -0.043769381323880335 0.0 1.308371243155919 0.004650629883780905 0.0 0.22546074984315823 -0.044311952352593366 0.0 1.313745661635337 -0.0370575190873878 0.0 0.16675965724960884 -0.0556805470353249 0.0 0.6258702207902463 -0.0032217537713763035 0.0 -0.04752884730422788 -0.0728858736397839 0.0 0.6480991291373839 -0.013202601594760239 0.0 0.8837465425901385 0.28740367825608787 0.0 0.8870255330592932 0.4007858449258478 0.0 0.8856633826845468 0.25446343612078354 0.0 0.9139261872299542 0.10527692156785944 0.0 0.8666348323836426 0.21258813195298937 0.0 0.9084560430996991 0.2907043077094971 0.0 0.8577039382625193 0.22089598607928382 0.0 0.8009721499132789 0.1716325774133356 0.0 0.8679641019003563 0.15431849432401076 0.0 0.0 0.0 0.0 0.841886739079824 0.1679442354364881 0.0 0.8734797238145411 0.16491775010242524 0.0 1.1081298885053172 0.011949710249145151 0.0 1.2570425593295709 0.011597690180155029 0.0 0.995598137697008 -0.03459979221920366 0.0 0.6520125564899693 -0.05387135867310517 0.0 1.2072331669407168 0.08382408994813371 0.0 0.7168942161238612 -0.16584881024219836 0.0 1.1281224274489352 -0.11176675982940842 0.0 1.123074928988852 0.00707364069388664 0.0 1.3085007757838474 0.04087665982037274 0.0 0.7232700219744137 0.017975626633952285 0.0 1.2742098948822604 0.024129303414617168 0.0 1.1323847594315628 0.04914422236092041 0.0 -0.01964459007619158 -0.044533122735394046 0.0 -0.1979623044137235 -0.0499920798983862 0.0 0.9493972887109053 0.32360918650064047 0.0 0.9651965022603106 -0.055859628751872795 0.0 0.45945270180630643 -0.053141223947469264 0.0 0.0 0.0 0.0 1.2063963231451513 -0.002329009757000629 0.0 1.2329768129140437 -0.019891114401899362 0.0 1.2245824378804089 0.0546729154130512 0.0 1.108851448501517 -0.052939282341431304 0.0 0.48452828428300293 -0.01567380297987134 0.0 1.2796094032419687 0.06317221526854636 0.0 1.2583663291424305 0.14016058575353854 0.0 0.028452986111818995 -0.05880060832184746 0.0 -0.1586646445845056 -0.06493215016134199 0.0 -0.13772498170764194 -0.06838152424951172 0.0 -0.159891459361266 -0.032862124253918844 0.0 1.1489947617371512 0.16068687344840654 0.0 0.7720549633280247 0.1812607526515154 0.0 0.7773330453650228 0.14528282173789037 0.0 0.7857288888885933 0.10154579408893986 0.0 0.6175002160572893 0.10302699584719945 0.0 0.3631706510581631 -0.049253157018868454 0.0 0.02384031532360322 -0.03597440921512471 0.0 0.37799868659693936 -0.027922015635110216 0.0 0.9831917102949456 0.04049856385193788 0.0 0.0 0.0 0.0 0.6770416047264233 0.03485833044503723 0.0 1.1047778865602806 0.08463981307267968 0.0 -0.22933577375236042 -0.04635455245718383 0.0 1.0774952237577125 0.21759935733333957 0.0 0.9011951183502753 0.10744479739466352 0.0 1.2322096626778531 -0.05500900100231771 0.0 0.25169371654236344 -0.02081841321951269 0.0 0.5369318636956695 0.06843108319454715 0.0 0.22062303952985052 -0.0007711328034083115 0.0 1.2856832797692572 0.111524661261245 0.0 -0.21190727804545156 -0.05621915194532351 0.0 -0.14946246575277078 -0.06097676929111902 0.0 -0.1812827882914197 -0.04391980588739569 0.0 -0.15047253032568378 -0.03792807408223158 0.0 -0.21720806963385114 -0.00913012454566497 0.0 -0.23673778018145575 -0.030424406761949675 0.0 -0.09408495099090158 0.018676361708954425 0.0 -0.15163411965135798 -0.025529500834618347 0.0 -0.22082460744461763 -0.0077441404359626315 0.0 0.006623130750778804 -0.014220165058327001 0.0 -0.14976851462939458 -0.03521074473036368 0.0 -0.22914464605593365 0.055873893049528986 0.0 -0.23652344678035303 0.020077754697800654 0.0 -0.11801204188141172 0.021489182393423994 0.0 0.0 0.0 0.0 0.9357095496122493 0.2261193554994846 0.0 0.9517144433124565 0.038104724272799595 0.0 0.19788018783804778 -0.03890544924965116 0.0 0.3854802313075669 -0.015372350823073882 0.0 0.7386076082784677 0.06760313251053952 0.0 1.1044343367451124 0.12458867786656411 0.0 1.2642295904905851 0.10218605967960018 0.0 1.2298420689095104 -0.01892136126252225 0.0 0.1659573487359859 0.028575845782486568 0.0 -0.13993650687490242 0.0011577445498901781 0.0 -0.016909432355514377 0.08186010501381621 0.0 0.0925275465406941 -0.0012918007149152885 0.0 0.09596574654642448 0.03192611029543463 0.0 0.3258341206426366 -0.00709569532269565 0.0 0.6504116575851214 -0.02082562053092548 0.0 0.9231258003569571 -0.05181546588423909 0.0 0.40107701418456704 0.002034185656631746 0.0 0.6036960025176968 -0.035185088823042575 0.0 0.7145461716847672 -0.03538553802497793 0.0 0.8368094962993532 -0.05353296589273259 0.0 0.2936082664588267 0.03249915048267903 0.0 1.2300686504090077 -0.06411114491472913 0.0 1.0939789939618667 -0.056793051487538534 0.0 1.2389420414159125 -0.04663040640188776 0.0 1.0899570946565438 -0.05597858430797804 0.0 -0.08447092456608397 0.12142603929701046 0.0 1.0734150781356129 -0.05942769918607397 0.0 1.105660375267405 -0.05465809180956182 0.0 1.0835984751947463 -0.17329433909555625 0.0 -0.1548152995273068 0.16248584367574817 0.0 0.5446974035784838 -7.036359073117568e-05 0.0 1.2298927644709146 -0.17990231062867776 0.0 0.15599143226242054 0.07012325189019586 0.0 -0.1952134746147568 0.11868354533883285 0.0 1.240063438681124 -0.09682368776055242 0.0 0.13200207678518114 0.09393327829109122 0.0 -0.1846757758820014 0.1406911331682132 0.0 0.023651540148155237 0.178503840854931 0.0 0.06860353531035876 0.10185126990004219 0.0 -0.07886035998339075 0.14844788721776161 0.0 0.5513348775987386 -0.00031150474951941565 0.0 -0.016145999546307344 0.13743248487050447 0.0 0.12613929297140355 0.15193403879004705 0.0 -0.08274139728079168 0.1872822838971999 0.0 -0.03524245081695108 0.14981991123876426 0.0 -0.11606853849977694 0.18732537900810325 0.0 0.12891852076034208 0.20251235850842209 0.0 1.056966535516268 0.018027528883996377 0.0 0.5471154320330528 0.2028194457120655 0.0 0.49920358579990226 -0.006408041184782311 0.0 0.24047309631666464 -0.030191685987902745 0.0 0.7866060481995756 -0.05643532501050057 0.0 0.4328063583724235 0.018677653257734808 0.0 1.248867858397781 0.14130777412566328 0.0 1.08778898955916 0.1776166220754127 0.0 1.0413573775832785 -0.08309924458253017 0.0 -0.0719006762484358 -0.014327813124565558 0.0 -0.1526339971166299 0.061298090521565006 0.0 -0.2173561702314867 0.08432854261614929 0.0 -0.02354279997815023 0.10831192961441222 0.0 -0.16507703497772735 0.0949128391908536 0.0 0.41328336924563497 0.02680489179633491 0.0 1.245387770162185 -0.12137661052037647 0.0 0.7472238798280538 -0.032478641583384885 0.0 1.0382754456278822 -0.10085753058482093 0.0 -0.007097672268497698 0.202320522935053 0.0 0.18931566024397944 0.07213137996589482 0.0 0.16844852287315115 0.04467779839573423 0.0 0.45075168405494237 -0.022826109083903954 0.0 0.10674775628623544 0.08786580683903326 0.0 1.0548995390195999 0.08485013551861735 0.0 -0.0015431587636500132 0.12461976275701245 0.0 0.0453892234364313 0.07322214732219662 0.0 0.04445423455262033 0.08533756425824059 0.0 0.3492590576569586 -0.06495137372649806 0.0 0.5463112981383487 0.1235534089921879 0.0 0.8379221708155843 -0.056165426517584924 0.0 0.6887326230318186 -0.03937233149649333 0.0 0.8842169901759613 -0.04888598555743511 0.0 0.4005547040770786 0.028854843904557722 0.0 1.0338823493504208 -0.1480286895972304 0.0 1.2053700441137492 -0.10454369323193964 0.0 1.1297073409456013 -0.08138016180650492 0.0 1.0945204075837836 -0.06724350136780956 0.0 0.8151300135909981 -0.08623804263035012 0.0 0.7718702259278232 -0.10218198540596736 0.0 0.7299090050702642 -0.14420379403906577 0.0 0.6652970001036697 -0.10067322312504945 0.0 0.41152499498838596 -0.03570442837606883 0.0 1.0449445605997643 -0.19033715928076483 0.0 0.4256451229634193 0.0788287535919871 0.0 0.8435073319001909 0.13004004173339875 0.0 0.15399039987141533 0.0732697036135794 0.0 0.33410486621022245 0.13823875103973207 0.0 -0.08611587504950177 0.057783854950565844 0.0 1.2388996982186076 0.022661474544705674 0.0 1.0681764842655277 0.08842633278627951 0.0 1.2288221443772815 -0.03367846380439205 0.0 1.1989655120789817 -0.06911391992516021 0.0 0.4874201932683185 -0.08579240653280724 0.0 0.7489876139405193 -0.19160909280722702 0.0 0.8097696867110584 0.18490581743517762 0.0 0.21238411921370337 0.1635689139840628 0.0 1.2024694418996964 0.0521605422037619 0.0 1.2225861795243054 -0.04537534457298959 0.0 0.5705150615170971 0.1277021700930227 0.0 1.2146808429108507 -0.08759770327906513 0.0 0.8353599312537064 0.16475185036217102 0.0 1.226661168167778 0.1624230130801608 0.0 0.5568545587746236 0.1846361672928831 0.0 0.9299002898998437 0.2127338280707982 0.0 1.2221615128671786 0.08234087088423264 0.0 1.0912826633332855 -0.03903660173262274 0.0 1.2111639427838359 -0.10833936528558225 0.0 1.0367041961711148 0.19085914342005675 0.0 1.144932540223666 0.20105328018170404 0.0 1.1967007384763546 0.18571249094815503 0.0 1.1073132001869272 0.1442738013601958 0.0 1.098090527023123 0.17390955742248268 0.0 1.0924760868651626 0.20700503773826892 0.0 0.8745015245349014 0.21610780746852198 0.0 1.1447190083808276 -0.1323733738036702 0.0 0.0 0.0 0.0 1.1444760301937356 0.12273139139322214 0.0 0.9932597718632512 0.1820877109261792 0.0 0.520897718705981 0.21265211133419762 0.0 1.1403469701406628 0.139319873122567 0.0 1.0109201115979602 0.20062674673836614 0.0 1.1457009310384356 0.16192959862959244 0.0 0.7842075703777575 0.206847573532519 0.0 1.074870418868044 0.11425577517506756 0.0 0.6689435425774999 0.16809726442875428 0.0 0.39607371774895067 0.20278996064089722 0.0 1.0724934680607832 0.14934165480076853 0.0 0.8022665458429068 0.18658857791816247 0.0 1.0161046633803281 0.12135386242654617 0.0 0.9071908216010809 0.15249860175172883 0.0 0.8099584882731399 0.11573072468742647 0.0 1.1640063797636429 0.18614307606970323 0.0 1.1178183278932337 0.18871532722491485 0.0 1.1037844374227466 0.14058352422333498 0.0 0.2901507166169079 0.21023460775768463 0.0 0.8774631446846757 0.061404989957573056 0.0 1.0622488131313648 0.10679537322954145 0.0 1.035327158077616 0.09403385733621802 0.0 1.0380983006565327 0.03031421579501823 0.0 1.0381147787508795 0.05400218252500771 0.0 1.0639484563454764 0.12635201174979893 0.0 0.9391904026005026 0.09083603510826753 0.0 0.8811932906051138 0.05075571619061273 0.0 0.967225658030657 0.05308910702832554 0.0 1.0374096701789208 0.1058258679660014 0.0 0.7628548380829646 0.06372866807623775 0.0 1.0166145956999173 0.0429018783362904 0.0 0.9615961935099836 0.016492700920052797 0.0 0.9756146166962826 0.07299533516120887 0.0 0.982698048613877 0.03657985495659373 0.0 0.0 0.0 0.0 0.6487867689322904 -0.010500279909711968 0.0 1.0898501087422725 0.40643199015513715 0.0 1.1819281890306024 0.382857611909804 0.0 1.1002129271977987 -0.40501955133828643 0.0 0.8610632278406866 -0.20846873952550107 0.0 0.9732392618382619 -0.22648199650812725 0.0 0.8939245933523884 -0.08446370910263341 0.0 1.2745412644432192 -0.01621740621655628 0.0 1.1738053956725383 -0.032305497716634164 0.0 1.2556554791686998 -0.060728733692788014 0.0 1.1849127900284149 -0.0368988215201055 0.0 1.2282892493309527 -0.008038335365013805 0.0 -0.13952505813670957 -0.0494920818192098 0.0 -0.14792341373742263 -0.026197382462126773 0.0 -0.09791745254832805 -0.028898441258861565 0.0 -0.09210712407962206 -0.0014836942358846664 0.0 0.051923066495386715 0.0016262613525143054 0.0 -0.12318249470883504 -0.007159766788356883 0.0 -0.04847041696723894 0.028978095465455725 0.0 0.0850067107656825 0.02159992182212879 0.0 -0.037234142645459906 0.05051062017432292 0.0 -0.08733649805994204 0.017683635188547382 0.0 0.9835563550377561 0.11574175984797314 0.0 -0.06274758869574576 0.14107415853304678 0.0 1.2426589437904805 -0.15214662177929986 0.0 1.2084719209444714 -0.1352690314641259 0.0 1.106882573362583 -0.1359605971506019 0.0 1.2039509764585998 -0.17310140246993905 0.0 1.1693832683390386 -0.20323063458223037 0.0 1.1132754099767752 -0.18299049848217333 0.0 1.2036807477393028 -0.19874370644415248 0.0 1.1933690203522178 -0.21252079981200156 0.0 1.213985362394046 -0.19456315437915653 0.0 1.1017747505977213 -0.237401377732875 0.0 1.1220864132611656 -0.2241608557048419 0.0 0.9532119411712786 -0.20687137521981158 0.0 1.184555870108643 -0.22940013857612784 0.0 1.127602761153883 -0.1962985567811843 0.0 1.1522442646088147 -0.23359345086775304 0.0 0.949767678769908 -0.1329477522883204 0.0 1.1652952329129729 -0.21749106248373373 0.0 1.0037162069170944 -0.24513046139522585 0.0 1.1313359203392142 -0.21239062046898136 0.0 1.1067953878035264 -0.239688620551129 0.0 0.9603880567025751 -0.23257068241851717 0.0 1.0062455474331418 -0.18379051782378888 0.0 1.0191445627757045 -0.24185202413218435 0.0 0.6849106661049075 -0.2129086095216643 0.0 1.0597272264354118 -0.22340115563931226 0.0 0.871944894577411 -0.23794507051109945 0.0 1.0042403318912319 -0.09881