<?xml version="1.0"?>
<VTKFile type="UnstructuredGrid"  version="0.1"  >
<UnstructuredGrid>
<Piece  NumberOfPoints="1289" NumberOfCells="2413">
<Points>
<DataArray  type="Float64"  NumberOfComponents="3"  format="ascii">0 0 0  0 0.41 0  2.2 0.41 0  2.2 0 0  0.1 0.1 0  0.1 0.3 0  0.8 0.3 0  0.8 0.1 0  0.25 0.2 0  0.248976 0.210065 0  0.245948 0.219718 0  0.241038 0.228563 0  0.234448 0.23624 0  0.226448 0.242432 0  0.217365 0.246888 0  0.207571 0.249423 0  0.197468 0.249936 0  0.187467 0.248404 0  0.17798 0.24489 0  0.169395 0.239539 0  0.162062 0.232569 0  0.156283 0.224265 0  0.152293 0.214968 0  0.150257 0.205058 0  0.150257 0.194942 0  0.152293 0.185032 0  0.156283 0.175735 0  0.162062 0.167431 0  0.169395 0.160461 0  0.17798 0.15511 0  0.187467 0.151596 0  0.197468 0.150064 0  0.207571 0.150577 0  0.217365 0.153112 0  0.226448 0.157568 0  0.234448 0.16376 0  0.241038 0.171437 0  0.245948 0.180282 0  0.248976 0.189935 0  1.1 0 0  1.1 0.41 0  0.1 0.2 0  0.45 0.1 0  0.45 0.3 0  0.55 0 0  0.275 0.1 0  0.275 0.3 0  0.275 0 0  0.55 0.41 0  0 0.205 0  0.825 0 0  0.825 0.41 0  0.275 0.41 0  0.1 0.15 0  0.1875 0.1 0  0.1 0.25 0  0.1875 0.3 0  0.132322 0.2 0  0.241426 0.253518 0  0.241426 0.146482 0  0.264574 0.17974 0  0.264574 0.22026 0  0.138434 0.187348 0  0.153372 0.150948 0  0.148413 0.164094 0  0.176495 0.136535 0  0.22768 0.143571 0  0.138434 0.212652 0  0.148413 0.235906 0  0.176495 0.263465 0  0.22768 0.256429 0  0.23125 0.3 0  0.24769 0.24094 0  0.23125 0.1 0  0.24769 0.15906 0  0.26253 0.193641 0  0.190482 0.137872 0  0.166753 0.146661 0  0.157737 0.244461 0  0.190482 0.262128 0  0.203107 0.261264 0  0.253635 0.22977 0  0.203107 0.138736 0  0.253635 0.17023 0  0.261028 0.206206 0  0.167707 0.251809 0  0.143629 0.224191 0  0.215302 0.2591 0  0.270465 0.245894 0  0.215302 0.1409 0  0.270465 0.154106 0  0.284052 0.202587 0  0.14375 0.3 0  0.209375 0.3 0  0.225966 0.278501 0  0.209375 0.1 0  0.225966 0.121499 0  0.211613 0.273759 0  0.211613 0.126241 0  0.143629 0.175809 0  0.1 0.175 0  0.133484 0.164832 0  0.144491 0.249539 0  0.1 0.225 0  0.133484 0.235168 0  0.3625 0.3 0  0.25691 0.253381 0  0.25691 0.146619 0  0.277205 0.188698 0  0.184724 0.275712 0  0.237372 0.268285 0  0.184724 0.124288 0  0.237372 0.131715 0  0.197578 0.273149 0  0.193656 0.286994 0  0.197578 0.126851 0  0.193656 0.113006 0  0.122953 0.187671 0  0.118362 0.153758 0  0.155372 0.258107 0  0.122953 0.212329 0  0.118362 0.246242 0  0.276394 0.27264 0  0.276394 0.12736 0  0.280965 0.170013 0  0.253125 0.3 0  0.14375 0.1 0  0.253125 0.1 0  0.269489 0.26014 0  0.269489 0.13986 0  0.303639 0.184297 0  0.165625 0.3 0  0.134742 0.273113 0  0.257831 0.274737 0  0.255279 0.128499 0  0.3625 0.1 0  0.165625 0.1 0  0.162031 0.132368 0  0.134955 0.126405 0  0.149334 0.125568 0  0.142936 0.139597 0  0.12695 0.140259 0  0.242514 0.285501 0  0.242514 0.114499 0  0.1 0.125 0  0.117483 0.12555 0  0.11154 0.139776 0  0.121875 0.1 0  0.109143 0.1125 0  0.126805 0.114 0  0.220313 0.29129 0  0.351562 0.287369 0  0.207222 0.2866 0  0.220312 0.10871 0  0.1375 0 0  0.20625 0 0  0.207222 0.1134 0  0.11722 0.17118 0  0.1 0.1625 0  0.0778409 0.16875 0  0.0862762 0.15625 0  0 0.15375 0  0 0.1025 0  0.11722 0.22882 0  0.1 0.2375 0  0 0.3075 0  0.0862762 0.23125 0  0.0598995 0.222547 0  0.0860223 0.2125 0  0.289584 0.181469 0  0.300267 0.16446 0  0.163832 0.269071 0  0.149597 0.273325 0  0.1 0.275 0  0.268498 0.285953 0  0.31875 0.3 0  0.294154 0.254672 0  0.296875 0.3 0  0.293558 0.271845 0  0.285095 0.286799 0  0.324298 0.264316 0  0.307866 0.263745 0  0.317093 0.234901 0  0.315485 0.281219 0  0.316547 0.250625 0  0.344693 0.243731 0  0.331592 0.251147 0  0.35129 0.270663 0  0.338689 0.263683 0  0.340625 0.3 0  0.249849 0.264383 0  0.265097 0.11422 0  0.284688 0.156136 0  0.242188 0.324017 0  0.0856613 0.2625 0  0.132812 0.0612217 0  0.264062 0.0612217 0  0.198437 0.07598340000000001 0  0.0860223 0.1375 0  0.0794526 0.191089 0  0.285228 0.140397 0  0.298655 0.148737 0  0.31875 0.1 0  0.327335 0.15374 0  0.296875 0.1 0  0.312289 0.155283 0  0.313348 0.135607 0  0.321802 0.173916 0  0.298433 0.134116 0  0.112124 0.2625 0  0.127526 0.259083 0  0.121875 0.3 0  0.0682687 0.241503 0  0.1 0.2875 0  0.117762 0.28125 0  0.107813 0.3 0  0.103906 0.313849 0  0.0778409 0.28125 0  0.1375 0.41 0  0.0862762 0.29375 0  0.08886860000000001 0.24375 0  0.307812 0.338778 0  0.307812 0.292227 0  0.33216 0.279164 0  0.387888 0.266414 0  0.264063 0.31948 0  0.110937 0.07598340000000001 0  0.242188 0.07598340000000001 0  0.319914 0.11839 0  0.340625 0.1 0  0.334448 0.133793 0  0.329687 0.108539 0  0.346259 0.118491 0  0.360334 0.173636 0  0.327539 0.205033 0  0.132812 0.288712 0  0.362436 0.278836 0  0.368105 0.259418 0  0.4125 0.41 0  0.329687 0.324017 0  0.329687 0.292306 0  0.285938 0.318952 0  0.417187 0.338778 0  0.324481 0.14148 0  0.351562 0.106771 0  0.40625 0.1 0  0.341028 0.168342 0  0.319221 0.190479 0  0.335292 0.184501 0  0.305563 0.20794 0  0.220313 0.31948 0  0.132812 0.332772 0  0.0865876 0.311259 0  0.0598995 0.302453 0  0.0906541 0.343255 0  0.353543 0.255837 0  0.36574 0.237633 0  0.405007 0.254279 0  0.275795 0.352123 0  0.4125 0 0  0.35493 0.137394 0  0.366563 0.120618 0  0.35917 0.205246 0  0.198438 0.318952 0  0.0626109 0.263892 0  0.40625 0.3 0  0.354809 0.155936 0  0.386512 0.146872 0  0.373101 0.159939 0  0.384375 0.1 0  0.343394 0.19929 0  0.350682 0.185683 0  0.368101 0.189748 0  0.344016 0.221511 0  0.391108 0.213329 0  0.376279 0.204783 0  0.398843 0.182768 0  0.375804 0.222746 0  0.390665 0.196958 0  0.394004 0.23518 0  0.359883 0.222828 0  0.419908 0.204359 0  0.404243 0.204783 0  0.412615 0.224526 0  0.20625 0.41 0  0.165625 0.325257 0  0.0347982 0.244954 0  0.379558 0.247154 0  0.34165 0.147603 0  0.372264 0.136992 0  0.388988 0.121989 0  0.373437 0.108554 0  0.351562 0.31948 0  0.391367 0.16527 0  0.399572 0.223324 0  0.452011 0.227371 0  0.40877 0.239392 0  0.431491 0.237337 0  0.421224 0.250459 0  0.449619 0.262098 0  0.418865 0.276779 0  0.437063 0.252274 0  0.415673 0.263227 0  0.430988 0.266772 0  0.402767 0.273419 0  0.452967 0.244883 0  0.428125 0.3 0  0.408502 0.286186 0  0.384375 0.3 0  0.392267 0.285807 0  0.465927 0.219339 0  0.43489 0.283846 0  0.376424 0.286289 0  0.625 0.3 0  0.473533 0.205186 0  0.461713 0.255517 0  0.5375 0.3 0  0.465725 0.235405 0  0.44631 0.201425 0  0.471875 0.3 0  0.494307 0.227729 0  0.459448 0.206736 0  0.462294 0.180792 0  0.478933 0.227536 0  0.486793 0.21381 0  0.486322 0.251373 0  0.50065 0.215318 0  0.54005 0.175389 0  0.474633 0.189893 0  0.512916 0.208697 0  0.49531 0.199967 0  0.475889 0.175275 0  0.625 0.1 0  0.459311 0.153933 0  0.513645 0.242704 0  0.392892 0.248539 0  0.374815 0.271913 0  0.365974 0.14871 0  0.395312 0.109184 0  0.417061 0.123981 0  0.483196 0.277003 0  0.381967 0.179632 0  0.429898 0.219374 0  0.433473 0.206165 0  0.43149 0.181038 0  0.444208 0.215487 0  0.472985 0.247309 0  0.49375 0.3 0  0.475579 0.262714 0  0.49916 0.274293 0  0.501175 0.184809 0  0.514164 0.225681 0  0.543648 0.214977 0  0.5341630000000001 0.23481 0  0.527396 0.216171 0  0.5375 0.1 0  0.534548 0.202315 0  0.561545 0.192513 0  0.5494289999999999 0.201221 0  0.570923 0.218346 0  0.412582 0.149833 0  0.489327 0.264745 0  0.502439 0.254775 0  0.462391 0.271166 0  0.496775 0.241732 0  0.5294410000000001 0.268606 0  0.482812 0.291099 0  0.46879 0.285038 0  0.452663 0.284065 0  0.51789 0.257882 0  0.53408 0.252026 0  0.560142 0.243543 0  0.545708 0.243474 0  0.547532 0.229019 0  0.55282 0.265323 0  0.398971 0.153424 0  0.400349 0.135684 0  0.410135 0.168145 0  0.428823 0.161323 0  0.415266 0.183779 0  0.329687 0.0810483 0  0.395312 0.0612217 0  0.373437 0.318952 0  0.439062 0.324017 0  0.561816 0.229354 0  0.585029 0.239287 0  0.431827 0.139854 0  0.446796 0.168929 0  0.351562 0.07598340000000001 0  0.395313 0.318944 0  0.54337 0.150762 0  0.460937 0.31948 0  0.418412 0.137529 0  0.428125 0.1 0  0.442783 0.152332 0  0.450742 0.134294 0  0.373437 0.0805201 0  0.384383 0.342558 0  0.482812 0.318952 0  0.429239 0.127457 0  0.444274 0.117405 0  0.426548 0.113815 0  0.49375 0.1 0  0.488954 0.113984 0  0.457973 0.121842 0  0.471621 0.137346 0  0.515625 0.325257 0  0.48125 0.41 0  0.417187 0.07598340000000001 0  0.496363 0.126778 0  0.479043 0.155715 0  0.439062 0.0805201 0  0.481795 0.126919 0  0.471875 0.1 0  0.489227 0.142159 0  0.515625 0.1 0  0.520062 0.147117 0  0.501244 0.161791 0  0.505431 0.112984 0  0.505344 0.14029 0  0.526563 0.119081 0  0.5181750000000001 0.131908 0  0.539868 0.136937 0  0.460937 0.108383 0  0.474242 0.114415 0  0.460937 0.0810483 0  0.487841 0.167168 0  0.526563 0.0612217 0  0.526563 0.106406 0  0.537619 0.112743 0  0.58125 0.1 0  0.559375 0.1 0  0.482812 0.08105569999999999 0  0.471883 0.0587655 0  0.570312 0.129396 0  0.548437 0.07598340000000001 0  0.504687 0.08105569999999999 0  0.49375 0.0470127 0  0.570312 0.112663 0  0.592798 0.12103 0  0.553986 0.12103 0  0.570312 0.0805201 0  0.48125 0 0  0.114787 0.2 0  0.160769 0.284765 0  0.175816 0.288361 0  0.162602 0.116048 0  0.154687 0.07598340000000001 0  0.176562 0.0805201 0  0.0598995 0.147547 0  0.307812 0.109924 0  0.291279 0.117157 0  0.278491 0.112989 0  0.285937 0.07598340000000001 0  0.307812 0.0805201 0  0.296928 0.196743 0  0.318141 0.218507 0  0.330208 0.227509 0  0.301397 0.225668 0  0.302706 0.241401 0  0.292574 0.21424 0  0.282762 0.230935 0  0.284351 0.244775 0  0.269553 0.23261 0  0.278572 0.217242 0  0.226924 0.342606 0  0.446928 0.185396 0  0.515625 0.3 0  0.504687 0.288879 0  0.515256 0.276534 0  0.529479 0.285328 0  0.58125 0.3 0  0.541969 0.272936 0  0.559375 0.3 0  0.556796 0.282529 0  0.543473 0.287206 0  0.581429 0.267774 0  0.566728 0.271171 0  0.570869 0.255585 0  0.577404 0.283865 0  0.603125 0.3 0  0.597531 0.28035 0  0.570312 0.338778 0  0.592188 0.292492 0  0.603513 0.256094 0  0.614063 0.286265 0  0.610329 0.27064 0  0.632708 0.251285 0  0.657223 0.261594 0  0.618789 0.257807 0  0.614188 0.22987 0  0.630935 0.265614 
[...]
<PointData  Vectors="v"> 
	<DataArray  type="Float64"  Name="v"  NumberOfComponents="3" format="ascii">
0.0 0.0 0.0 0.0 0.0 0.0 0.0 0.0 0.0 0.0 0.0 0.0 0.7972559313848054 -0.1880943954274594 0.0 0.841506896897394 0.1992076822234704 0.0 1.0651979731946453 -0.11252129583129092 0.0 0.9145668062149327 -0.04098076326174062 0.0 0.0 0.0 0.0 0.0 0.0 0.0 0.0 0.0 0.0 0.0 0.0 0.0 0.0 0.0 0.0 0.0 0.0 0.0 0.0 0.0 0.0 0.0 0.0 0.0 0.0 0.0 0.0 0.0 0.0 0.0 0.0 0.0 0.0 0.0 0.0 0.0 0.0 0.0 0.0 0.0 0.0 0.0 0.0 0.0 0.0 0.0 0.0 0.0 0.0 0.0 0.0 0.0 0.0 0.0 0.0 0.0 0.0 0.0 0.0 0.0 0.0 0.0 0.0 0.0 0.0 0.0 0.0 0.0 0.0 0.0 0.0 0.0 0.0 0.0 0.0 0.0 0.0 0.0 0.0 0.0 0.0 0.0 0.0 0.0 0.0 0.0 0.0 0.0 0.0 0.0 0.0 0.0 0.0 0.0 0.0 0.0 0.0 0.0 0.0 0.7649092551182439 -0.0012810557598737131 0.0 1.2107353289736558 0.08734101734245221 0.0 1.2250763447054849 -0.1627640018982036 0.0 0.0 0.0 0.0 1.2968774243723435 -0.06872783198870289 0.0 1.3195279922984502 0.09519632695972599 0.0 0.0 0.0 0.0 0.0 0.0 0.0 1.0 0.0 0.0 0.0 0.0 0.0 0.0 0.0 0.0 0.0 0.0 0.0 0.8468649392040459 -0.22812279507350242 0.0 1.1536804208568638 -0.2990710188121429 0.0 0.8683397675219979 0.22542209422130033 0.0 1.1700505876451146 0.31066270560664233 0.0 0.4321924099859571 -0.0035685048825135224 0.0 0.16151537192412058 0.028479385659582832 0.0 0.17808061622442475 -0.021029219395363806 0.0 -0.04901373541804514 -0.053014492042670405 0.0 -0.047387151980380494 0.07506210723648855 0.0 0.3379028247106236 -0.2810361698353916 0.0 0.8729696693350927 -0.6709206000559237 0.0 0.6505577585327624 -0.6928014238084091 0.0 1.2435098959614626 -0.6011463537897594 0.0 0.3102022070672137 0.005204110088684225 0.0 0.3342926668399202 0.2709821169180321 0.0 0.6534895797431823 0.6741783708022626 0.0 1.2217290280034312 0.604802260356779 0.0 0.2864793379898452 0.0022356748244821084 0.0 1.2850209100344787 0.19603521917219227 0.0 -0.021583289355540426 0.05448047070313632 0.0 1.27088051949906 -0.17088117093512123 0.0 -0.0151772535714032 -0.052820998353784114 0.0 -0.03658987294942251 -0.014869683713374318 0.0 1.2274254123605333 -0.39796936639560665 0.0 1.128504076108637 -0.7295046514937752 0.0 0.8720193246816811 0.779182338322791 0.0 1.2304723538879894 0.3995443997881319 0.0 0.9067134393489619 0.16524988547317399 0.0 -0.037078291667367314 0.0712418140010438 0.0 0.9231609721149379 -0.15981835759617977 0.0 -0.038748865356035826 -0.06646300956555763 0.0 -0.030349859024986086 0.0323193420705064 0.0 1.0613785078842444 0.7292412614095063 0.0 0.44874952591560313 0.5338615058526697 0.0 0.5331507031125574 0.03284839822888157 0.0 0.0742413597726368 0.05702869448830008 0.0 0.5523110858014584 -0.02941658231713162 0.0 0.08567884421412342 -0.0416348205636065 0.0 -0.11020492320106394 0.028369882706709856 0.0 0.9697775115378506 0.29920317915734623 0.0 1.2540854460742734 0.24804986643682875 0.0 1.2955688442728406 0.20621640784888431 0.0 1.2245728744331439 -0.2402629720032824 0.0 1.2947301781001985 -0.19277379318990695 0.0 1.3040678892597608 0.25617548769499043 0.0 1.3098868513355069 -0.24330494284001997 0.0 0.4491745579487881 -0.5486786536034928 0.0 0.80575783572772 -0.13809366053458613 0.0 0.6787896295500983 -0.41763294515739674 0.0 0.8921531254525835 0.5931174455382353 0.0 0.803446409541236 0.14133454411204327 0.0 0.6850381266740253 0.4199527389387403 0.0 1.302248794777556 -0.0569898646660836 0.0 0.18649811511517062 0.035910688070351186 0.0 0.21701143674815132 -0.02358140965992022 0.0 -0.08744405779675107 -0.017422387489554835 0.0 1.3031202261888057 0.4298510205469154 0.0 0.8730187098077631 0.06952704239040294 0.0 1.2974293554109249 -0.43108696477274977 0.0 0.9031181227394877 -0.057133562580274556 0.0 1.333081563023608 0.36178125311090537 0.0 1.2715152840231252 0.3476915771883777 0.0 1.329198763020402 -0.3547301027790679 0.0 1.2608133209217451 -0.32379298164989756 0.0 0.588261110427662 -0.15999078736116637 0.0 0.802944730284089 -0.3282656343505218 0.0 1.032425714796504 0.5978360388254289 0.0 0.5966216926216849 0.1508621220804887 0.0 0.8195201580221914 0.32872351704444225 0.0 0.8700114364602812 0.04198684478099875 0.0 0.9122961285743044 -0.01810553901329132 0.0 -0.04389189521960905 -0.04209641945074049 0.0 1.3125113633178973 0.13791219105608396 0.0 0.9335829773767702 -0.3035692480629326 0.0 1.2887846926561541 -0.11346032520423806 0.0 0.4030639329031916 0.032595478783690526 0.0 0.44980296714340584 -0.011204133908750339 0.0 -0.13300844443643858 0.002444569115280252 0.0 1.063358961126283 0.3244929991302157 0.0 0.953205730625243 0.38101628396300646 0.0 1.0259480061588884 0.07417113323016883 0.0 0.931790471606475 -0.04361198153486025 0.0 1.2496119602787612 0.049875212229756105 0.0 1.0325789379862713 -0.3157237412339154 0.0 1.0977947012271336 -0.5561460013178322 0.0 0.9398459652172935 -0.37802668931090955 0.0 1.01165749993453 -0.4228636284185068 0.0 0.9468360584786117 -0.5361690434198221 0.0 0.8740937342648227 -0.3999652776235256 0.0 1.3110718463301048 0.16003976220959057 0.0 1.302029517215212 -0.14147990779786354 0.0 0.8559918043960796 -0.22931930367080436 0.0 0.8847566659606227 -0.30141008989623164 0.0 0.858491653722136 -0.2932947552621544 0.0 0.8531654186292212 -0.24424207468312084 0.0 0.857250213928106 -0.2436635232333791 0.0 0.9017356207717092 -0.3073590964974182 0.0 1.317421969695121 0.2304127917947402 0.0 1.2003334302590492 -0.04097632239168829 0.0 1.3283828201635592 0.2907713068493731 0.0 1.3059978732462956 -0.2055431735200839 0.0 0.0 0.0 0.0 0.0 0.0 0.0 1.3099098373147202 -0.2731200323600924 0.0 0.7195541645036267 -0.26597573803571845 0.0 0.8243526603053865 -0.20823228194497134 0.0 0.8736222017376141 -0.10909111516858686 0.0 0.8654538377402442 -0.16107034183340152 0.0 0.9375 0.0 0.0 0.7500000000000001 0.0 0.0 0.7279859641242685 0.26452170496848965 0.0 0.8284929194690314 0.19769031450629565 0.0 0.7499999999999999 0.0 0.0 0.8727836008860825 0.12566297072022733 0.0 0.9302349806730505 0.041366631030790406 0.0 0.8509933030877247 0.04420657641254649 0.0 -0.10062377764365962 -0.01782782305190045 0.0 0.0011846153963647615 -0.015220680733077741 0.0 1.1392341560964976 0.5391108650578665 0.0 1.0338575032829482 0.4602375504277014 0.0 0.8842348227259108 0.2388430266802678 0.0 1.2520695560756894 0.09026913232386434 0.0 1.3142848428239275 0.017265933614139375 0.0 0.28942320985163483 0.035317225615180484 0.0 1.3235164350269777 0.05422380830793506 0.0 0.8189267257855865 0.023909922369438452 0.0 1.2338557173422509 0.060672609412674966 0.0 0.5982834004509265 0.006180077913859668 0.0 0.5535265620622569 0.01874115975455353 0.0 0.017323666448915438 0.06133253352806535 0.0 1.0842226863499171 0.008970856444926506 0.0 0.24783652116950916 0.0386505728079533 0.0 0.1780810699621059 0.038673567030169755 0.0 0.28830438259424596 0.03215683386538349 0.0 0.8222932249638437 -0.028858660860120594 0.0 0.6051733339031776 -0.00251102538711398 0.0 1.3147747552357505 -0.021922171419832 0.0 0.6003667338920196 0.03161069156034062 0.0 1.2629842177239856 -0.07774410627527016 0.0 0.08737331429993418 -0.027629971250363337 0.0 1.1546116656035181 0.11738674945777351 0.0 0.8855412505939976 0.17513053300936168 0.0 0.6955134739524059 -0.15506116192444228 0.0 1.0399862034658005 -0.054050489722276836 0.0 1.0160529808924246 -0.18164264732087443 0.0 0.8663491976634294 -0.17836642215413845 0.0 0.8778908421647219 -0.025423417901849286 0.0 0.44280324643850927 -0.0035345445624448872 0.0 0.24091489830325863 -0.0013824332639259856 0.0 1.2792955514616937 0.008095311460786403 0.0 0.1747065655167784 0.022911701614190177 0.0 1.295584059747016 -0.02777067094721138 0.0 0.13223837368469477 0.005999160130550542 0.0 0.6134955389951097 0.03148202229396526 0.0 -0.08889149567818172 0.011546081451176247 0.0 0.6516632443317099 0.01615982112081977 0.0 0.8848389610087414 0.2912066525068541 0.0 0.8885480927562335 0.4053944949953011 0.0 0.8870146750769036 0.25782897411132005 0.0 0.9141956707740261 0.1072285010571608 0.0 0.8674872816663483 0.2152977782988789 0.0 0.9097063744531111 0.2943366087131683 0.0 0.8587085593957188 0.2237102944064979 0.0 0.801837911192247 0.1739970989199499 0.0 0.8684373968727109 0.15619002445729538 0.0 0.0 0.0 0.0 0.8424736858333789 0.16998594006507406 0.0 0.8740114690711687 0.16792304785041431 0.0 1.1261236962503198 0.012659133493207783 0.0 1.2780115743264118 0.028795088516229358 0.0 1.0300143655163092 -0.011846022148291514 0.0 0.7921960219759383 -0.07581983261852378 0.0 1.2186669755880457 0.09174093781576852 0.0 0.7158343372212379 -0.1637126186707708 0.0 1.1204156385938886 -0.10697756775407936 0.0 1.0957837527351018 0.026213832087198165 0.0 1.268028180013721 0.03341191900097337 0.0 0.6806565040046623 0.05200030508856162 0.0 1.235937961132882 0.029438571086364784 0.0 1.072521852696335 0.05441468660948504 0.0 -0.09303190087014483 0.035348269041747885 0.0 -0.1897092417950672 0.04964284741749066 0.0 0.9509709750822497 0.32762121614042855 0.0 1.046402178651746 -0.056892417364785994 0.0 0.5652732937659545 -0.024825445458938576 0.0 0.0 0.0 0.0 1.2325147367003062 -0.007177914234117266 0.0 1.2703316603481456 -0.01010466146935241 0.0 1.2404573442370808 0.06209859386053055 0.0 1.0982605866757171 -0.09369197174890702 0.0 0.4515808590652472 0.03232911560157406 0.0 1.2265571132290345 0.049428108886327496 0.0 1.22412049974578 0.07105458495441239 0.0 -0.03515397860453082 0.027123901302199455 0.0 -0.1751258519926583 0.024608290736031862 0.0 -0.16973918661014956 0.028691769381136687 0.0 -0.15171640037167988 0.047123035924161824 0.0 1.154476425262434 0.1673551994849372 0.0 0.7736516247862135 0.18401878512885203 0.0 0.7778419689294347 0.1470747196941143 0.0 0.7859860086264866 0.10251144436905367 0.0 0.6180762643515783 0.10438820676853926 0.0 0.4431513055534341 0.0023857768023155014 0.0 0.11566987683271403 0.028034328493885933 0.0 0.546419308098592 -0.07830439397090308 0.0 0.9954218534230241 0.043124163951497305 0.0 0.0 0.0 0.0 0.5929222703950794 0.062079774446496434 0.0 1.0169582581473984 0.06981927745575363 0.0 -0.21691370267852111 0.049704631703129894 0.0 1.0816623096421414 0.2229846590407803 0.0 0.9014380461095749 0.10888114285526178 0.0 1.2803301538575393 -0.12320712926947526 0.0 0.16001504098960176 0.04238757799003382 0.0 0.3843573251624242 0.05802084412445281 0.0 0.10569249659008662 0.04407257893985481 0.0 1.2379973022863844 0.06294032065645508 0.0 -0.2153946556004911 0.04593081302359831 0.0 -0.1876328766666097 0.036618420548048376 0.0 -0.21695872673701194 0.03889743174242575 0.0 -0.10979931823231454 0.0589548905324818 0.0 -0.17132856819207692 0.02229986068942158 0.0 -0.22546817972302693 0.03995791472804147 0.0 -0.1760458769560985 0.018856999614993143 0.0 -0.08420239140315205 0.0338314299863972 0.0 -0.23937124636309878 0.02451973890272781 0.0 0.12611744204230735 -0.00761293736651371 0.0 -0.08996328260215272 0.05000922666326457 0.0 -0.2151777262728046 -0.02326382700355006 0.0 -0.22307185080962208 0.003980408607111142 0.0 -0.017317473923508714 -0.02762296598994159 0.0 0.0 0.0 0.0 0.9385221021526592 0.23006003591444976 0.0 0.9517415869917711 0.03861382948566185 0.0 0.3202884874392034 -0.009622220337733828 0.0 0.31814837896778225 0.04221028670595118 0.0 0.6168659906055718 0.0679123272427932 0.0 0.986362198661362 0.07615757362145673 0.0 1.1956210001740517 0.0652046002335086 0.0 1.2610192926249502 -0.03407437263488274 0.0 0.034160546317158286 0.03457856478030897 0.0 -0.051484434170958104 0.00017919459382830712 0.0 0.09949250982139798 -0.11898742374157874 0.0 0.23550703029142642 -0.04754856468315302 0.0 0.2477190345848598 -0.09329209212611034 0.0 0.5023749379794378 -0.10241857145711243 0.0 0.8183425896621856 -0.1789829782024815 0.0 1.0646459652942677 -0.1479661988371818 0.0 0.5826995198012179 -0.14031125729929728 0.0 0.7820749281236337 -0.12232308924967285 0.0 0.8885510322743145 -0.15655991301683855 0.0 0.983415836790995 -0.11730577794312565 0.0 0.4527528102451754 -0.15248306490972932 0.0 1.2553691372074858 -0.1463707011371833 0.0 1.193905824899374 -0.13549648275670853 0.0 1.2968748866732789 -0.09010800098733981 0.0 1.1905132844193198 -0.10782440990980445 0.0 -0.010649002961158106 -0.13292132316781535 0.0 1.1651996714921604 -0.17157876615939735 0.0 1.1925968789722068 -0.08448851409206715 0.0 1.075001350741033 -0.025116427012175594 0.0 -0.14815150571252972 -0.12562840014112936 0.0 0.6958659403238456 -0.1832796999635107 0.0 1.096518912901787 -0.11115099812664776 0.0 0.2756848418786016 -0.15661750694758048 0.0 -0.20290276628364604 -0.07114209322992235 0.0 1.1895037786871412 -0.1652774452256933 0.0 0.16580005391317154 -0.17688161390999788 0.0 -0.15760803453186217 -0.10505975372088157 0.0 -0.08227867396200374 -0.06299301136550228 0.0 0.1422697123696375 -0.16483772101060035 0.0 -0.05577120670695719 -0.15438898610930055 0.0 0.6369774186953594 -0.1936284403251745 0.0 -0.019926523778492 -0.1670052002836486 0.0 0.2762965873735423 -0.014943628883423045 0.0 -0.14007564270191172 -0.09915722807320568 0.0 -0.06206925043995951 -0.16210412252944603 0.0 -0.12486548037054868 -0.14052300949709481 0.0 0.027828954049968532 -0.06300859765606419 0.0 1.0685348323119264 0.15945847446999206 0.0 0.3721347493453063 0.010361531077629254 0.0 0.47003078235759044 -0.18389385383610712 0.0 0.3847539759322704 -0.03829389554534823 0.0 0.8962055287282878 -0.06432522351330618 0.0 0.31974237774160924 0.05434854420485886 0.0 1.174895374834831 0.07336314958761415 0.0 0.9524908213760721 0.07687951630391525 0.0 1.0582747578830438 -0.19377833209763085 0.0 -0.1520973290390586 0.031034672121914273 0.0 -0.06523758253185345 -0.05892467411672147 0.0 -0.19351695187987047 -0.0502517327013989 0.0 -0.1359870965945456 -0.021755328538970217 0.0 -0.09476071200294593 -0.08372007284839753 0.0 0.5376343540902885 -0.18358334514486158 0.0 1.1540960042372483 -0.15419105022963872 0.0 0.8514240365092525 -0.19823463438362512 0.0 1.0159073885421512 -0.18700505575468385 0.0 -0.01991800894361136 -0.09705412811539656 0.0 0.14192426986973788 -0.1768598465286646 0.0 0.026413121234392448 -0.1440686345339303 0.0 0.31233801354608265 -0.16445152653380016 0.0 0.01971140458890212 -0.16517829342552792 0.0 1.192012719616719 0.15506010765939068 0.0 -0.03368397799424238 -0.1311770000585972 0.0 0.1272185618462322 -0.04314732544663092 0.0 0.014851964332101128 -0.10455025658710286 0.0 0.09068398780917666 -0.09690276154963351 0.0 0.35758563099917157 0.04509461915487378 0.0 0.8867982532772809 -0.19796066646189306 0.0 0.7083377002443518 -0.19160157251023752 0.0 0.9923093759562952 -0.195709161851705 0.0 0.44455507511443715 -0.18751839705718473 0.0 0.918419117788446 -0.15418377191856036 0.0 1.1578456530821766 -0.17704127004119677 0.0 1.1467416138177162 -0.18908586961763643 0.0 1.1544278892488111 -0.1839699740493673 0.0 0.761441430060908 -0.17619654164782506 0.0 0.6470821985951065 -0.1581102242621271 0.0 0.466054987254916 -0.12007128550807968 0.0 0.474454768848123 -0.144914415833539 0.0 0.20689804993398758 -0.1493586945480488 0.0 0.85353222718073 -0.11973975164775102 0.0 0.25914348878257554 0.04531097515906526 0.0 0.675183074165611 0.0693208685596171 0.0 0.008870087130050448 0.01801811440612363 0.0 0.15354891558754435 0.01202324765613873 0.0 -0.176350802490446 0.00023133953787956332 0.0 1.2139978906204416 0.01516311647638769 0.0 1.0720985294479315 0.05295784709357543 0.0 1.2589921165801548 -0.06635060160113795 0.0 1.1667658669966896 -0.1266697515270263 0.0 0.21283450506006754 -0.12448544534977052 0.0 0.3742218692463305 -0.07566209562255695 0.0 0.6183446772629884 0.05386876651512777 0.0 0.05555872027894375 -0.020214262298026784 0.0 1.1799095558703647 0.03342343791759114 0.0 1.242082429310735 -0.09335588644995683 0.0 0.7454679566604966 0.09678291723344558 0.0 1.1591962322010603 -0.13747597165627776 0.0 0.6513045363332705 0.060624499885726095 0.0 1.2148774279021377 0.07927815538878195 0.0 0.36298437830060437 0.021085777764665716 0.0 0.7792794838990051 0.06057649539602841 0.0 1.2006305538133268 0.047865133617399955 0.0 1.1003425252054309 -0.06674897912568223 0.0 1.1290067121193594 -0.13569078840794857 0.0 0.8919686542170835 0.0715161946664793 0.0 1.0815267195894336 0.08137755139549607 0.0 1.1222178752182201 0.07988929092702887 0.0 1.2103966634422725 0.1165195482664545 0.0 1.156058623516453 0.10881934372222496 0.0 1.0299855603240813 0.08098952119061634 0.0 0.7611270462027323 0.05588092305143957 0.0 1.0468934742667284 -0.10770722859264453 0.0 0.0 0.0 0.0 1.162727066831492 0.06684026082552294 0.0 1.015287698670011 0.09816761881408344 0.0 0.39720255969346735 0.0012989305420390265 0.0 1.1779087758049174 0.07881193943102296 0.0 0.9859707421663901 0.0856406101746023 0.0 1.2108003359290898 0.09895269455532686 0.0 0.7137895758446755 0.05064114490963709 0.0 1.2044539598554662 0.13680454083420326 0.0 0.7233394660345419 0.06843354474485835 0.0 0.35675631125143964 -0.011641196601748534 0.0 1.1744197183642746 0.12530361782302094 0.0 0.8044812449887107 0.07232850726940755 0.0 1.1480099810260778 0.14567853170594128 0.0 0.986598875687631 0.11477661769140501 0.0 0.9654160272225518 0.13560465605922134 0.0 1.1813864959915044 0.09185006379095571 0.0 1.1405639046229175 0.0962898252126499 0.0 1.1702962363983185 0.0908645063352637 0.0 0.2027584189378938 -0.039056282232225535 0.0 0.9580149856973305 0.10452484253224614 0.0 1.200883556755558 0.14993984260933274 0.0 1.1861971969772063 0.16187709959621102 0.0 1.1420205362439688 0.17847234320060962 0.0 1.1724054533820498 0.171917621737458 0.0 1.1567262674059005 0.10215878390524512 0.0 1.0148676362226399 0.07714577361463057 0.0 1.1030479756554221 0.19107182643585813 0.0 1.0552111958828598 0.13515968747341336 0.0 1.1455039885199565 0.1148978489214366 0.0 0.8429680458732394 0.07337269223816209 0.0 1.173946495536451 0.1895794884462241 0.0 1.1441082032064331 0.20537481668845298 0.0 1.1528005322109263 0.17778160894762698 0.0 1.055163147605998 0.1476148461571593 0.0 0.0 0.0 0.0 0.6487669355869079 -0.0053536212186271045 0.0 1.091927183157289 0.4112996089807079 0.0 1.184040999465905 0.3880322768371072 0.0 1.0975370642076756 -0.4005949350033197 0.0 0.8587677381484724 -0.20548423567844512 0.0 0.9700023404701261 -0.22274723634406246 0.0 0.8936715639976971 -0.08313368167120712 0.0 1.2509295717710183 -0.0027854077004203512 0.0 1.1660166754545604 -0.01575736130205568 0.0 1.2486770837714545 -0.04723175039592075 0.0 1.169856740436812 -0.03297558440811521 0.0 1.2086139339321917 -0.007176754509605202 0.0 -0.14475844283125464 0.02014730698090972 0.0 -0.12233532117030521 0.061667115945650094 0.0 -0.052528805036405855 0.06108550661364487 0.0 -0.06661205050560041 0.06715743314813603 0.0 0.07774976238057545 0.05959418389495762 0.0 -0.1105086016655174 0.05581891598244248 0.0 -0.031763323532125236 0.07578674111231673 0.0 0.09282177667882902 0.0589946403956924 0.0 -0.03013863605208341 0.0809715267075158 0.0 -0.07751730291394264 0.06531251217362055 0.0 0.9905732460564944 0.12019623506592851 0.0 -0.1573580855538303 -0.05105514601257978 0.0 1.1224984487862555 -0.13494002567998198 0.0 1.118196354133921 -0.1643451437410508 0.0 1.021732260814944 -0.16618108648306998 0.0 1.0707380681537129 -0.13719017656879243 0.0 1.0709447139306072 -0.05632763815957069 0.0 0.9584865555397065 -0.13041302682642186 0.0 1.078986941443859 -0.08061803563988865 0.0 1.0288239213089307 -0.09702748011040456 0.0 1.0644778061511182 -0.11318972006923216 0.0 0.8655299745754812 -0.06624497164532225 0.0 0.9199027799107928 -0.08793212462850956 0.0 0.6827068701516436 -0.09409950372932269 0.0 1.0244316064920813 -0.06633172350897151 0.0 1.068204995707358 -0.03660773136311802 0.0 0.9950683831960105 -0.04066419798141113 0.0 0.9185426102427336 -0.052318714125360946 0.0 1.0590754829135267 -0.04389262545908223 0.0 0.6737245657523229 -0.0368590917578051 0.0 1.036079678562074 -0.02545863180402787 0.0 0.8952134783486829 -0.026427551307945153 0.0 0.6016423251918572 0.006404820691140938 0.0 0.8044079101601975 0.013723157002722948 0.0 0.7045565174002514 -0.014400636992561801 0.0 0.25136842048394376 -0.003273739902866283 0.0 0.8338543022813778 -0.005245449261085981 0.0 0.45144153199004955 -0.005033305470036796 0.0 1.0991675703562662 -0.03563464958165503 0.0 0.