<?xml version="1.0"?>
<VTKFile type="UnstructuredGrid"  version="0.1"  >
<UnstructuredGrid>
<Piece  NumberOfPoints="1289" NumberOfCells="2413">
<Points>
<DataArray  type="Float64"  NumberOfComponents="3"  format="ascii">0 0 0  0 0.41 0  2.2 0.41 0  2.2 0 0  0.1 0.1 0  0.1 0.3 0  0.8 0.3 0  0.8 0.1 0  0.25 0.2 0  0.248976 0.210065 0  0.245948 0.219718 0  0.241038 0.228563 0  0.234448 0.23624 0  0.226448 0.242432 0  0.217365 0.246888 0  0.207571 0.249423 0  0.197468 0.249936 0  0.187467 0.248404 0  0.17798 0.24489 0  0.169395 0.239539 0  0.162062 0.232569 0  0.156283 0.224265 0  0.152293 0.214968 0  0.150257 0.205058 0  0.150257 0.194942 0  0.152293 0.185032 0  0.156283 0.175735 0  0.162062 0.167431 0  0.169395 0.160461 0  0.17798 0.15511 0  0.187467 0.151596 0  0.197468 0.150064 0  0.207571 0.150577 0  0.217365 0.153112 0  0.226448 0.157568 0  0.234448 0.16376 0  0.241038 0.171437 0  0.245948 0.180282 0  0.248976 0.189935 0  1.1 0 0  1.1 0.41 0  0.1 0.2 0  0.45 0.1 0  0.45 0.3 0  0.55 0 0  0.275 0.1 0  0.275 0.3 0  0.275 0 0  0.55 0.41 0  0 0.205 0  0.825 0 0  0.825 0.41 0  0.275 0.41 0  0.1 0.15 0  0.1875 0.1 0  0.1 0.25 0  0.1875 0.3 0  0.132322 0.2 0  0.241426 0.253518 0  0.241426 0.146482 0  0.264574 0.17974 0  0.264574 0.22026 0  0.138434 0.187348 0  0.153372 0.150948 0  0.148413 0.164094 0  0.176495 0.136535 0  0.22768 0.143571 0  0.138434 0.212652 0  0.148413 0.235906 0  0.176495 0.263465 0  0.22768 0.256429 0  0.23125 0.3 0  0.24769 0.24094 0  0.23125 0.1 0  0.24769 0.15906 0  0.26253 0.193641 0  0.190482 0.137872 0  0.166753 0.146661 0  0.157737 0.244461 0  0.190482 0.262128 0  0.203107 0.261264 0  0.253635 0.22977 0  0.203107 0.138736 0  0.253635 0.17023 0  0.261028 0.206206 0  0.167707 0.251809 0  0.143629 0.224191 0  0.215302 0.2591 0  0.270465 0.245894 0  0.215302 0.1409 0  0.270465 0.154106 0  0.284052 0.202587 0  0.14375 0.3 0  0.209375 0.3 0  0.225966 0.278501 0  0.209375 0.1 0  0.225966 0.121499 0  0.211613 0.273759 0  0.211613 0.126241 0  0.143629 0.175809 0  0.1 0.175 0  0.133484 0.164832 0  0.144491 0.249539 0  0.1 0.225 0  0.133484 0.235168 0  0.3625 0.3 0  0.25691 0.253381 0  0.25691 0.146619 0  0.277205 0.188698 0  0.184724 0.275712 0  0.237372 0.268285 0  0.184724 0.124288 0  0.237372 0.131715 0  0.197578 0.273149 0  0.193656 0.286994 0  0.197578 0.126851 0  0.193656 0.113006 0  0.122953 0.187671 0  0.118362 0.153758 0  0.155372 0.258107 0  0.122953 0.212329 0  0.118362 0.246242 0  0.276394 0.27264 0  0.276394 0.12736 0  0.280965 0.170013 0  0.253125 0.3 0  0.14375 0.1 0  0.253125 0.1 0  0.269489 0.26014 0  0.269489 0.13986 0  0.303639 0.184297 0  0.165625 0.3 0  0.134742 0.273113 0  0.257831 0.274737 0  0.255279 0.128499 0  0.3625 0.1 0  0.165625 0.1 0  0.162031 0.132368 0  0.134955 0.126405 0  0.149334 0.125568 0  0.142936 0.139597 0  0.12695 0.140259 0  0.242514 0.285501 0  0.242514 0.114499 0  0.1 0.125 0  0.117483 0.12555 0  0.11154 0.139776 0  0.121875 0.1 0  0.109143 0.1125 0  0.126805 0.114 0  0.220313 0.29129 0  0.351562 0.287369 0  0.207222 0.2866 0  0.220312 0.10871 0  0.1375 0 0  0.20625 0 0  0.207222 0.1134 0  0.11722 0.17118 0  0.1 0.1625 0  0.0778409 0.16875 0  0.0862762 0.15625 0  0 0.15375 0  0 0.1025 0  0.11722 0.22882 0  0.1 0.2375 0  0 0.3075 0  0.0862762 0.23125 0  0.0598995 0.222547 0  0.0860223 0.2125 0  0.289584 0.181469 0  0.300267 0.16446 0  0.163832 0.269071 0  0.149597 0.273325 0  0.1 0.275 0  0.268498 0.285953 0  0.31875 0.3 0  0.294154 0.254672 0  0.296875 0.3 0  0.293558 0.271845 0  0.285095 0.286799 0  0.324298 0.264316 0  0.307866 0.263745 0  0.317093 0.234901 0  0.315485 0.281219 0  0.316547 0.250625 0  0.344693 0.243731 0  0.331592 0.251147 0  0.35129 0.270663 0  0.338689 0.263683 0  0.340625 0.3 0  0.249849 0.264383 0  0.265097 0.11422 0  0.284688 0.156136 0  0.242188 0.324017 0  0.0856613 0.2625 0  0.132812 0.0612217 0  0.264062 0.0612217 0  0.198437 0.07598340000000001 0  0.0860223 0.1375 0  0.0794526 0.191089 0  0.285228 0.140397 0  0.298655 0.148737 0  0.31875 0.1 0  0.327335 0.15374 0  0.296875 0.1 0  0.312289 0.155283 0  0.313348 0.135607 0  0.321802 0.173916 0  0.298433 0.134116 0  0.112124 0.2625 0  0.127526 0.259083 0  0.121875 0.3 0  0.0682687 0.241503 0  0.1 0.2875 0  0.117762 0.28125 0  0.107813 0.3 0  0.103906 0.313849 0  0.0778409 0.28125 0  0.1375 0.41 0  0.0862762 0.29375 0  0.08886860000000001 0.24375 0  0.307812 0.338778 0  0.307812 0.292227 0  0.33216 0.279164 0  0.387888 0.266414 0  0.264063 0.31948 0  0.110937 0.07598340000000001 0  0.242188 0.07598340000000001 0  0.319914 0.11839 0  0.340625 0.1 0  0.334448 0.133793 0  0.329687 0.108539 0  0.346259 0.118491 0  0.360334 0.173636 0  0.327539 0.205033 0  0.132812 0.288712 0  0.362436 0.278836 0  0.368105 0.259418 0  0.4125 0.41 0  0.329687 0.324017 0  0.329687 0.292306 0  0.285938 0.318952 0  0.417187 0.338778 0  0.324481 0.14148 0  0.351562 0.106771 0  0.40625 0.1 0  0.341028 0.168342 0  0.319221 0.190479 0  0.335292 0.184501 0  0.305563 0.20794 0  0.220313 0.31948 0  0.132812 0.332772 0  0.0865876 0.311259 0  0.0598995 0.302453 0  0.0906541 0.343255 0  0.353543 0.255837 0  0.36574 0.237633 0  0.405007 0.254279 0  0.275795 0.352123 0  0.4125 0 0  0.35493 0.137394 0  0.366563 0.120618 0  0.35917 0.205246 0  0.198438 0.318952 0  0.0626109 0.263892 0  0.40625 0.3 0  0.354809 0.155936 0  0.386512 0.146872 0  0.373101 0.159939 0  0.384375 0.1 0  0.343394 0.19929 0  0.350682 0.185683 0  0.368101 0.189748 0  0.344016 0.221511 0  0.391108 0.213329 0  0.376279 0.204783 0  0.398843 0.182768 0  0.375804 0.222746 0  0.390665 0.196958 0  0.394004 0.23518 0  0.359883 0.222828 0  0.419908 0.204359 0  0.404243 0.204783 0  0.412615 0.224526 0  0.20625 0.41 0  0.165625 0.325257 0  0.0347982 0.244954 0  0.379558 0.247154 0  0.34165 0.147603 0  0.372264 0.136992 0  0.388988 0.121989 0  0.373437 0.108554 0  0.351562 0.31948 0  0.391367 0.16527 0  0.399572 0.223324 0  0.452011 0.227371 0  0.40877 0.239392 0  0.431491 0.237337 0  0.421224 0.250459 0  0.449619 0.262098 0  0.418865 0.276779 0  0.437063 0.252274 0  0.415673 0.263227 0  0.430988 0.266772 0  0.402767 0.273419 0  0.452967 0.244883 0  0.428125 0.3 0  0.408502 0.286186 0  0.384375 0.3 0  0.392267 0.285807 0  0.465927 0.219339 0  0.43489 0.283846 0  0.376424 0.286289 0  0.625 0.3 0  0.473533 0.205186 0  0.461713 0.255517 0  0.5375 0.3 0  0.465725 0.235405 0  0.44631 0.201425 0  0.471875 0.3 0  0.494307 0.227729 0  0.459448 0.206736 0  0.462294 0.180792 0  0.478933 0.227536 0  0.486793 0.21381 0  0.486322 0.251373 0  0.50065 0.215318 0  0.54005 0.175389 0  0.474633 0.189893 0  0.512916 0.208697 0  0.49531 0.199967 0  0.475889 0.175275 0  0.625 0.1 0  0.459311 0.153933 0  0.513645 0.242704 0  0.392892 0.248539 0  0.374815 0.271913 0  0.365974 0.14871 0  0.395312 0.109184 0  0.417061 0.123981 0  0.483196 0.277003 0  0.381967 0.179632 0  0.429898 0.219374 0  0.433473 0.206165 0  0.43149 0.181038 0  0.444208 0.215487 0  0.472985 0.247309 0  0.49375 0.3 0  0.475579 0.262714 0  0.49916 0.274293 0  0.501175 0.184809 0  0.514164 0.225681 0  0.543648 0.214977 0  0.5341630000000001 0.23481 0  0.527396 0.216171 0  0.5375 0.1 0  0.534548 0.202315 0  0.561545 0.192513 0  0.5494289999999999 0.201221 0  0.570923 0.218346 0  0.412582 0.149833 0  0.489327 0.264745 0  0.502439 0.254775 0  0.462391 0.271166 0  0.496775 0.241732 0  0.5294410000000001 0.268606 0  0.482812 0.291099 0  0.46879 0.285038 0  0.452663 0.284065 0  0.51789 0.257882 0  0.53408 0.252026 0  0.560142 0.243543 0  0.545708 0.243474 0  0.547532 0.229019 0  0.55282 0.265323 0  0.398971 0.153424 0  0.400349 0.135684 0  0.410135 0.168145 0  0.428823 0.161323 0  0.415266 0.183779 0  0.329687 0.0810483 0  0.395312 0.0612217 0  0.373437 0.318952 0  0.439062 0.324017 0  0.561816 0.229354 0  0.585029 0.239287 0  0.431827 0.139854 0  0.446796 0.168929 0  0.351562 0.07598340000000001 0  0.395313 0.318944 0  0.54337 0.150762 0  0.460937 0.31948 0  0.418412 0.137529 0  0.428125 0.1 0  0.442783 0.152332 0  0.450742 0.134294 0  0.373437 0.0805201 0  0.384383 0.342558 0  0.482812 0.318952 0  0.429239 0.127457 0  0.444274 0.117405 0  0.426548 0.113815 0  0.49375 0.1 0  0.488954 0.113984 0  0.457973 0.121842 0  0.471621 0.137346 0  0.515625 0.325257 0  0.48125 0.41 0  0.417187 0.07598340000000001 0  0.496363 0.126778 0  0.479043 0.155715 0  0.439062 0.0805201 0  0.481795 0.126919 0  0.471875 0.1 0  0.489227 0.142159 0  0.515625 0.1 0  0.520062 0.147117 0  0.501244 0.161791 0  0.505431 0.112984 0  0.505344 0.14029 0  0.526563 0.119081 0  0.5181750000000001 0.131908 0  0.539868 0.136937 0  0.460937 0.108383 0  0.474242 0.114415 0  0.460937 0.0810483 0  0.487841 0.167168 0  0.526563 0.0612217 0  0.526563 0.106406 0  0.537619 0.112743 0  0.58125 0.1 0  0.559375 0.1 0  0.482812 0.08105569999999999 0  0.471883 0.0587655 0  0.570312 0.129396 0  0.548437 0.07598340000000001 0  0.504687 0.08105569999999999 0  0.49375 0.0470127 0  0.570312 0.112663 0  0.592798 0.12103 0  0.553986 0.12103 0  0.570312 0.0805201 0  0.48125 0 0  0.114787 0.2 0  0.160769 0.284765 0  0.175816 0.288361 0  0.162602 0.116048 0  0.154687 0.07598340000000001 0  0.176562 0.0805201 0  0.0598995 0.147547 0  0.307812 0.109924 0  0.291279 0.117157 0  0.278491 0.112989 0  0.285937 0.07598340000000001 0  0.307812 0.0805201 0  0.296928 0.196743 0  0.318141 0.218507 0  0.330208 0.227509 0  0.301397 0.225668 0  0.302706 0.241401 0  0.292574 0.21424 0  0.282762 0.230935 0  0.284351 0.244775 0  0.269553 0.23261 0  0.278572 0.217242 0  0.226924 0.342606 0  0.446928 0.185396 0  0.515625 0.3 0  0.504687 0.288879 0  0.515256 0.276534 0  0.529479 0.285328 0  0.58125 0.3 0  0.541969 0.272936 0  0.559375 0.3 0  0.556796 0.282529 0  0.543473 0.287206 0  0.581429 0.267774 0  0.566728 0.271171 0  0.570869 0.255585 0  0.577404 0.283865 0  0.603125 0.3 0  0.597531 0.28035 0  0.570312 0.338778 0  0.592188 0.292492 0  0.603513 0.256094 0  0.614063 0.286265 0  0.610329 0.27064 0  0.632708 0.251285 0  0.657223 0.261594 0  0.618789 0.257807 0  0.614188 0.22987 0  0.630935 0.265614 
[...]
<PointData  Vectors="v"> 
	<DataArray  type="Float64"  Name="v"  NumberOfComponents="3" format="ascii">
0.0 0.0 0.0 0.0 0.0 0.0 0.0 0.0 0.0 0.0 0.0 0.0 0.7963203885664529 -0.186230684342485 0.0 0.8425581639436119 0.20072022229858333 0.0 1.017771032600006 -0.13129253454704018 0.0 0.889058325938168 -0.05626727017690074 0.0 0.0 0.0 0.0 0.0 0.0 0.0 0.0 0.0 0.0 0.0 0.0 0.0 0.0 0.0 0.0 0.0 0.0 0.0 0.0 0.0 0.0 0.0 0.0 0.0 0.0 0.0 0.0 0.0 0.0 0.0 0.0 0.0 0.0 0.0 0.0 0.0 0.0 0.0 0.0 0.0 0.0 0.0 0.0 0.0 0.0 0.0 0.0 0.0 0.0 0.0 0.0 0.0 0.0 0.0 0.0 0.0 0.0 0.0 0.0 0.0 0.0 0.0 0.0 0.0 0.0 0.0 0.0 0.0 0.0 0.0 0.0 0.0 0.0 0.0 0.0 0.0 0.0 0.0 0.0 0.0 0.0 0.0 0.0 0.0 0.0 0.0 0.0 0.0 0.0 0.0 0.0 0.0 0.0 0.0 0.0 0.0 0.0 0.0 0.0 0.7650146154172466 0.0021739893559472516 0.0 1.2375314522831111 0.08776885585378087 0.0 1.1777207032897947 -0.17366776763603237 0.0 0.0 0.0 0.0 1.2905149588299103 -0.0668882735713706 0.0 1.3256100679563863 0.08999713502724464 0.0 0.0 0.0 0.0 0.0 0.0 0.0 1.0 0.0 0.0 0.0 0.0 0.0 0.0 0.0 0.0 0.0 0.0 0.0 0.8460125148237594 -0.2251912166880315 0.0 1.1509052349179383 -0.297169214777523 0.0 0.8693895090555569 0.22816166516274275 0.0 1.1733054839657997 0.310568904239401 0.0 0.4323349252191297 0.0008345359053655607 0.0 0.16345919453683808 0.029559226056495778 0.0 0.18088496329431192 -0.018183213838773596 0.0 -0.05042931068031885 -0.03358825536655597 0.0 -0.04618420741388474 0.09453476537877284 0.0 0.3371676789201063 -0.27621986537964993 0.0 0.8706403374809446 -0.6674178685549559 0.0 0.6484916743930683 -0.6887025634368824 0.0 1.2407607052017955 -0.5988000351377012 0.0 0.31257983893359675 0.00672996417068234 0.0 0.33525204956747634 0.27591523784795796 0.0 0.6559862237167376 0.6785620137282964 0.0 1.2259069388836743 0.6067698942821114 0.0 0.28960166280032473 0.002193188156493325 0.0 1.2887482536633248 0.19370144262277098 0.0 -0.021475267196586007 0.05843868417900892 0.0 1.267348326316072 -0.16888916549325156 0.0 -0.01411075922942325 -0.048052956131096024 0.0 -0.03628476017461421 0.0069206222685416945 0.0 1.2255245522765537 -0.39665673714808664 0.0 1.1255623477918406 -0.7266649066253222 0.0 0.8754992620203677 0.7830875683887801 0.0 1.2363096509145148 0.400949181013739 0.0 0.9123120670217396 0.1658116200055134 0.0 -0.0372953426653435 0.08092980893414996 0.0 0.9230847721852786 -0.15902379303216166 0.0 -0.03801219549276593 -0.056487871840484885 0.0 -0.030451620639106947 0.05329381675725007 0.0 1.065388133436647 0.7323500200738566 0.0 0.4508336509680329 0.5387464991477121 0.0 0.5376598805288013 0.032827834786603 0.0 0.08187284774214247 0.06795291414817127 0.0 0.5537676244941571 -0.02853768980548992 0.0 0.08292398989949183 -0.028075597447391167 0.0 -0.10954825009092946 0.05289347375252491 0.0 0.9719433646928847 0.3004588788280218 0.0 1.2576766671936095 0.2466952125977465 0.0 1.3021122505433966 0.20511817064702653 0.0 1.2215428795122905 -0.23844925043854662 0.0 1.2925710035254385 -0.19066609706221951 0.0 1.3103043384406396 0.2556875302058076 0.0 1.3078417037292844 -0.2415352639200759 0.0 0.44736424191135876 -0.5439924698718497 0.0 0.8052510518179105 -0.1346742130135451 0.0 0.6773309991946055 -0.4133081648520898 0.0 0.8949853841414058 0.5966051808687906 0.0 0.8041768773202829 0.14466225451834677 0.0 0.6869268567941189 0.42427877502756123 0.0 1.3087853929259454 -0.08517892887097019 0.0 0.19075240536818674 0.04001824115287517 0.0 0.21902122749623879 -0.017145509262116287 0.0 -0.08961209315094201 0.006647205591139055 0.0 1.3075454495444405 0.43034998568906896 0.0 0.8818815073648086 0.06936582849753464 0.0 1.2946920956696975 -0.4291073764419576 0.0 0.9035214645952242 -0.05474462004157067 0.0 1.338159603674008 0.36172112196184286 0.0 1.275484008364869 0.34752097017517414 0.0 1.3268528861182953 -0.35289382690777094 0.0 1.2580919997159106 -0.3218904671375843 0.0 0.5877023819845392 -0.15563009305215816 0.0 0.801759809904116 -0.3247652159302936 0.0 1.0359476598405828 0.6006012540312601 0.0 0.5974100234431715 0.1552310769667503 0.0 0.8210335397096236 0.3320900184144465 0.0 0.8865443817767196 0.04326708607194005 0.0 0.9084608726175029 -0.012090969547913312 0.0 -0.0515285441058639 -0.02125448935859955 0.0 1.3169375001141561 0.13432820116306168 0.0 0.9316721897438773 -0.3013761456468203 0.0 1.284232902405996 -0.11130573915479441 0.0 0.4132921198540611 0.03760721121057843 0.0 0.4495365087448839 -0.0029742072301234654 0.0 -0.13974493798839527 0.02625912319236564 0.0 1.0661199769162275 0.325179194477981 0.0 0.9554507276641308 0.38329071316019087 0.0 1.0381861206639875 0.07411480757237573 0.0 0.9311462939588512 -0.039967886131876795 0.0 1.2389403051060277 0.03673954781093813 0.0 1.030160757288644 -0.31368111101741464 0.0 1.0952670179235884 -0.5534999502003216 0.0 0.93803357265922 -0.37528488184312925 0.0 1.0094771471169026 -0.42027273609594834 0.0 0.944679011647446 -0.5329485835567904 0.0 0.8725432264574523 -0.3967566830785507 0.0 1.3175472688155507 0.15792214649381028 0.0 1.2987552307211365 -0.13879019761417283 0.0 0.8550204428439877 -0.2269099820288429 0.0 0.8833632951338067 -0.2987729552504165 0.0 0.8573033694638779 -0.2903996539141572 0.0 0.8516833338640193 -0.2421747939253261 0.0 0.8560379348255928 -0.24141951946368867 0.0 0.9001403504927188 -0.3049224384191251 0.0 1.3215842704998848 0.22862673006945078 0.0 1.2322851539340713 -0.06619840697410567 0.0 1.3327522146368447 0.28986705961898024 0.0 1.302985218591957 -0.20355747224635443 0.0 0.0 0.0 0.0 0.0 0.0 0.0 1.3071485323607663 -0.27112803151926973 0.0 0.7187426020551239 -0.2621199972081469 0.0 0.8236214066410992 -0.2050913766888764 0.0 0.8733156458176747 -0.10653036514378747 0.0 0.8649330181380517 -0.15843533902709447 0.0 0.9375 0.0 0.0 0.7500000000000001 0.0 0.0 0.7290449438739585 0.2683277027880787 0.0 0.8294217388864505 0.20073470886498698 0.0 0.7499999999999999 0.0 0.0 0.8733644959840235 0.1284142247676419 0.0 0.9304673760779638 0.04319121911566987 0.0 0.851216061410084 0.04712481512643658 0.0 -0.10651265874332541 0.006300556890072176 0.0 -0.010869215265152044 0.006424161487179969 0.0 1.1428751212950488 0.5410990765751977 0.0 1.0367573194429924 0.4623778090117112 0.0 0.8853525254352189 0.24098227208089304 0.0 1.2629584667604055 0.08772345585483109 0.0 1.3246948609469706 0.004056677470223 0.0 0.3099380157573474 0.04591704835519222 0.0 1.332014101179182 0.04599959777882647 0.0 0.8430960749985322 0.024963003147338313 0.0 1.248543555010916 0.05705714739135647 0.0 0.640526887205872 0.004432270021018818 0.0 0.5844357479804907 0.022845194975117278 0.0 0.04008631094116508 0.07753080351430498 0.0 1.1150815691616243 0.001594012523905643 0.0 0.28001937379720027 0.04853719889090134 0.0 0.2185525307969274 0.03705912747519002 0.0 0.32920259560213805 0.03595787115296227 0.0 0.8789874885835075 -0.050430501403334965 0.0 0.6564121250633934 -0.01188113604311912 0.0 1.3263577173311376 -0.041958904652089755 0.0 0.6088934704721929 0.032252985987485785 0.0 1.2583711510923696 -0.07377353710438356 0.0 0.07815340598866058 -0.00987000718521158 0.0 1.156914458659869 0.11395772789374145 0.0 0.8862957909472203 0.17725498317574218 0.0 0.6938887721301057 -0.15377130425373847 0.0 1.035251748545181 -0.05353372327897546 0.0 1.0129727431933353 -0.18037056352849065 0.0 0.8656903230913884 -0.1760747391653031 0.0 0.8778757965319971 -0.0227230576600067 0.0 0.43759029160819807 0.007745565809712944 0.0 0.2281711309206189 0.014688687023452596 0.0 1.2678385795599116 0.004748403934821696 0.0 0.15221785970887203 0.03675997878271873 0.0 1.2866460886754323 -0.027061233824332738 0.0 0.11459768910573753 0.024114076430349712 0.0 0.5959768117477099 0.040001023937781106 0.0 -0.1014464344323964 0.029707521459330255 0.0 0.6418850269871835 0.02585214771672919 0.0 0.8863236314388794 0.2937821419495667 0.0 0.8905124265161429 0.40838747505705475 0.0 0.888552882766033 0.2593724976043151 0.0 0.914600249247187 0.10924137788913839 0.0 0.8685623587938979 0.2170276693518564 0.0 0.9113259914589129 0.2964356176295379 0.0 0.8599374442169416 0.22527300850775825 0.0 0.8028726313905509 0.17518323740536781 0.0 0.8691235758896729 0.15778323832880758 0.0 0.0 0.0 0.0 0.8432433754147464 0.17147461606416078 0.0 0.8747424363757343 0.1704771746733696 0.0 1.1242826877457728 0.003551473382687208 0.0 1.2948233298259606 0.019979241217412607 0.0 1.0696390438955077 -0.024939314601373913 0.0 0.8576277870662274 -0.12564711253753497 0.0 1.22135061758637 0.08679526811173305 0.0 0.714690983346951 -0.16216324786217187 0.0 1.1161926853514763 -0.10589688470900636 0.0 1.0778824825099278 0.027326862802637124 0.0 1.255396265566725 0.02528108619879608 0.0 0.6525361471910683 0.05363043286240485 0.0 1.2199267540721723 0.024879632414432234 0.0 1.0465067506056258 0.04675529789047054 0.0 -0.10702214832242204 0.02594196001300326 0.0 -0.18665571459272437 0.06704347173385272 0.0 0.9529948907121453 0.32941187409743716 0.0 1.0950951202829473 -0.0879489035425251 0.0 0.6303386535531305 -0.056410675620308076 0.0 0.0 0.0 0.0 1.229911660079782 -0.02231522858124741 0.0 1.291577945798762 -0.02711783369021115 0.0 1.243241190024057 0.054897754302764404 0.0 1.0671064131929848 -0.10501219998879058 0.0 0.4280289063217781 0.04215729745808715 0.0 1.2100074118627238 0.03757302538879816 0.0 1.2287793013887813 0.05387659722642437 0.0 -0.051921395078158225 0.034503683798388314 0.0 -0.17959509620476796 0.04528165258491444 0.0 -0.17779093750453673 0.04150736182502486 0.0 -0.14821297901556496 0.07173337192399205 0.0 1.157242586516262 0.16525599402053298 0.0 0.7749844198521575 0.18477130054833857 0.0 0.7785241771843007 0.1482382856108799 0.0 0.7863520688605058 0.10351069578713513 0.0 0.618696451044158 0.10511375853787173 0.0 0.49993959472947963 -0.014137917738216287 0.0 0.15803214669813562 0.004475917665743359 0.0 0.6101580003443996 -0.14573899543499894 0.0 0.9944654329808323 0.038191042655402206 0.0 0.0 0.0 0.0 0.5560275124833256 0.054667032013033835 0.0 0.9866568208174241 0.053641907913882264 0.0 -0.2121083918173127 0.04061920731644313 0.0 1.084251903974255 0.22211472944804103 0.0 0.9018216805135004 0.11041243447010199 0.0 1.2625770515716679 -0.15555312566453128 0.0 0.13336198262551205 0.03878037398492298 0.0 0.351398237134775 0.026299372406604578 0.0 0.08364999601654652 0.022965074205961025 0.0 1.2332944946166144 0.04589958024490239 0.0 -0.2153561929813457 0.05287633724696802 0.0 -0.1959462971822143 0.03758882058299385 0.0 -0.2233039322686549 0.020376551471732132 0.0 -0.09238813218079342 0.06345040297622319 0.0 -0.15417757901580748 -0.030424898144662954 0.0 -0.21977955988871137 0.009321938719378725 0.0 -0.18130542291143148 -0.04002645403941387 0.0 -0.059869395523447916 -0.0002948944696570435 0.0 -0.2382849076051575 -0.026096270478258198 0.0 0.1711672642418163 -0.065117949394867 0.0 -0.06633374924229306 0.03801881044659351 0.0 -0.2032107541622244 -0.11567003453251715 0.0 -0.21411912112940423 -0.06866714785104817 0.0 0.013158808532579624 -0.11055078520935942 0.0 0.0 0.0 0.0 0.9405956805379246 0.23033414461659568 0.0 0.9518028843583765 0.03955123228295428 0.0 0.3788372246813659 -0.050854191781963716 0.0 0.28875206348920274 0.04698152993833387 0.0 0.5768688890724347 0.04859534554958384 0.0 0.9569944300740919 0.05118117599981931 0.0 1.1796216340590946 0.046896419990414315 0.0 1.2553489877261599 -0.05399590613779915 0.0 0.02024942330778993 -0.008858651280121225 0.0 -0.02218391045400675 -0.0654891206057523 0.0 0.1105587142506305 -0.2164011769454571 0.0 0.28488365853348074 -0.12264014144429927 0.0 0.28583894982886315 -0.18274935709297416 0.0 0.5550104512272529 -0.17941181293287825 0.0 0.8292354369125051 -0.23180322094655081 0.0 1.0872252214732032 -0.19840251105045262 0.0 0.6196164167079199 -0.21472849381378245 0.0 0.8342028816055341 -0.188366081564658 0.0 0.9185957779103956 -0.21628631885929817 0.0 1.0287950941234896 -0.17178675108598482 0.0 0.4695815381667549 -0.22759312708629323 0.0 1.2219039420943736 -0.17181615031005248 0.0 1.2021561832364192 -0.17878262129977976 0.0 1.2945049016794956 -0.12276822402152382 0.0 1.2128882297022743 -0.15092106704970376 0.0 -0.014199217943497034 -0.234584403601012 0.0 1.149609116238112 -0.2063830835579121 0.0 1.2221793026588719 -0.12238468696254413 0.0 1.0980786613375504 -0.0009073598560369264 0.0 -0.1360777464731141 -0.22797712876225973 0.0 0.693938646638357 -0.23316115109436486 0.0 1.0491736765508004 -0.0530662605952545 0.0 0.2715135149220679 -0.2359247004358305 0.0 -0.1897367505335976 -0.17974824696495786 0.0 1.1325269232359445 -0.15708452605713472 0.0 0.11682683701331874 -0.23688376870101943 0.0 -0.14787349685184034 -0.21476102120792429 0.0 -0.03615871410421163 -0.152720977117228 0.0 0.11712300847863122 -0.24145495812784865 0.0 -0.06899309066356353 -0.23943026629587746 0.0 0.5932341948873037 -0.2191582705686285 0.0 -0.043881029865644655 -0.22970228175272367 0.0 0.4396096557680817 0.06717628146794524 0.0 -0.09399024354699116 -0.18958975137294018 0.0 -0.05188067146341139 -0.19661927094461237 0.0 -0.087229260795818 -0.20631974980931597 0.0 0.10125935577269395 -0.12908885751220842 0.0 1.0027044783014945 0.15316239528334002 0.0 0.4179673919245103 -0.044664627420624645 0.0 0.37186645572324123 -0.19000563359252898 0.0 0.44581876539016874 -0.09672458936666514 0.0 0.9566335093822729 -0.10459093709922458 0.0 0.28638078939040706 0.04015759990534348 0.0 1.1646031887677273 0.05048938516574824 0.0 0.9363062733299367 0.04530074979431419 0.0 1.0025952527530109 -0.18599497289089878 0.0 -0.16264015018101255 -0.005087003169859285 0.0 -0.04450149297143374 -0.15868251863706775 0.0 -0.17974199185103132 -0.15427196106210184 0.0 -0.12532380769250423 -0.11382562807855601 0.0 -0.08147443165347092 -0.19197538184660512 0.0 0.5202610039230506 -0.23427748776940105 0.0 1.0940406733099224 -0.12649029478142604 0.0 0.8192466986389755 -0.21892850073190515 0.0 0.9471039705283866 -0.1619684226061226 0.0 0.0791407153976567 -0.12766637744405995 0.0 0.0689558893363174 -0.20673007150640946 0.0 0.026271312716710474 -0.10413646111968847 0.0 0.19055778511645138 -0.15188272996233593 0.0 -0.004892007465716404 -0.16924302315226042 0.0 1.2010106381972159 0.20887387401704446 0.0 0.045533329665173566 -0.09924449282317147 0.0 0.2871621199495967 0.07214749307695699 0.0 0.12301937448411092 -0.027480079945729673 0.0 0.1017793615304671 0.004954416494829032 0.0 0.34319191796645376 -0.007489656456226021 0.0 0.8316292755313319 -0.19587990672041575 0.0 0.6337507776246305 -0.18721543375328215 0.0 0.9677773447509632 -0.22048251081635822 0.0 0.3808483265406692 -0.21886538645062198 0.0 0.8179194868769248 -0.1017355074283997 0.0 1.0972304276907159 -0.1600889593758515 0.0 1.0968910197556265 -0.19107903153611805 0.0 1.1206525874357431 -0.20368321863509095 0.0 0.6601858081436464 -0.14729844058169836 0.0 0.5151699439412316 -0.12302697059559635 0.0 0.3082199292924555 -0.060521156072803096 0.0 0.3252932822447133 -0.1055174593837771 0.0 0.10832132754555791 -0.1118570117548953 0.0 0.7268254797470896 -0.05672029658232337 0.0 0.23954360249279433 -0.000188144083059635 0.0 0.6421622269489722 0.03361885071439819 0.0 0.004728093320639053 -0.047709191408289935 0.0 0.16321674616597326 -0.05922915715834249 0.0 -0.17424516190439948 -0.07789184595500416 0.0 1.2070635124143323 0.009573202284761821 0.0 1.0780259303579047 0.046456221119485455 0.0 1.2463744168572979 -0.08957456873249267 0.0 1.1246165016897698 -0.13316558814729734 0.0 0.12091883813667588 -0.055678744819358895 0.0 0.247814277739203 0.023622491848142125 0.0 0.615264257090149 0.007402428505221471 0.0 0.08701586997092024 -0.10068360852859977 0.0 1.176390415140212 0.025260897360139388 0.0 1.2188736999277594 -0.11651234870564021 0.0 0.8783406384587015 0.1921590735440444 0.0 1.1098613178475527 -0.1318765565577426 0.0 0.6326625729624485 0.017046054864152605 0.0 1.2303973107752062 0.06820054252473617 0.0 0.3843189033919111 -0.040025583262954835 0.0 0.7979308874208169 0.028721255641809735 0.0 1.2005061744862822 0.03658833322593529 0.0 1.080492578085545 -0.08127085970415841 0.0 1.0781624584856013 -0.1162088357918916 0.0 0.8853552251917779 0.03877747620372279 0.0 1.097778985245456 0.06506722838318413 0.0 1.1256464831919037 0.05824709323503294 0.0 1.2447959301536835 0.15049859291674322 0.0 1.205013502926949 0.13847766879486278 0.0 1.0585563015396589 0.07165991942688013 0.0 0.8123619991661626 0.04115497770004395 0.0 1.009371944741474 -0.07243652599473382 0.0 0.0 0.0 0.0 1.1758682523748716 0.060532898617036694 0.0 1.0835551872481912 0.13048667549145485 0.0 0.47519348504334435 -0.03097957378645774 0.0 1.1975726315215827 0.07974334928477687 0.0 1.0424776227250845 0.0979794573783614 0.0 1.244831132126591 0.11538761680237426 0.0 0.7941883398279498 0.0554500803635445 0.0 1.2293217428117766 0.18526778947709524 0.0 0.8419130402366057 0.12493361825331663 0.0 0.4724426240245442 -0.009186710856331699 0.0 1.223897441273468 0.1721555173247541 0.0 0.9007971452530276 0.10727073242966442 0.0 1.2028475226245663 0.21228876981714564 0.0 1.0743458366761234 0.17591894773190664 0.0 1.0628662733192886 0.22164984693746737 0.0 1.2141292259451038 0.09621419953776898 0.0 1.1832712440215165 0.10918030967590155 0.0 1.1931100943124373 0.102556088323052 0.0 0.2998355385789332 -0.07293011744890482 0.0 0.9401336112742847 0.131155196248215 0.0 1.2286995964163232 0.208547008027704 0.0 1.2168607425059548 0.22898139714829444 0.0 1.1092539267376313 0.21698042197451478 0.0 1.1620822999971039 0.22370220578386343 0.0 1.1765101956412505 0.1256720462631921 0.0 1.0265099991390099 0.0905830146828522 0.0 1.1423110593038914 0.273671231305237 0.0 1.0316546719424902 0.16976796996247875 0.0 1.1587684351876668 0.14773648418472898 0.0 0.8348301817582264 0.08939850037469359 0.0 1.1688216351885459 0.24893655571965545 0.0 1.127300413769431 0.2565316906959355 0.0 1.1877770183435497 0.2545518818082157 0.0 1.0179704322773868 0.17647766448879512 0.0 0.0 0.0 0.0 0.6488942518685273 -0.0014780511459003848 0.0 1.0949572842844804 0.41266429477960853 0.0 1.1875518593343726 0.38865327870947164 0.0 1.0950534138963317 -0.3983066375422903 0.0 0.8566749462635238 -0.20398078635527336 0.0 0.9674167088255836 -0.22119900972936662 0.0 0.8934073875818627 -0.08145161039319126 0.0 1.2377786232142731 -0.0016808278392495745 0.0 1.1566326130837281 -0.011506768374288842 0.0 1.24163157984222 -0.04341761874222143 0.0 1.1637102557425225 -0.033282786577947476 0.0 1.2016337215952932 -0.0095277432629576 0.0 -0.14648425650710467 0.04498256647841831 0.0 -0.11127455639617401 0.08187843514696333 0.0 -0.031923159642895584 0.07320194992224081 0.0 -0.05414096432306262 0.0893158197779718 0.0 0.09878120334749704 0.07624672740777957 0.0 -0.10514151872220368 0.07996158203527629 0.0 -0.021622295687719832 0.09655501105001052 0.0 0.107439271734399 0.07365516894634053 0.0 -0.024596280282222025 0.09835483664610854 0.0 -0.07340078500099148 0.08823606755120997 0.0 0.9919952687554346 0.11804174386620983 0.0 -0.13379207035418508 -0.15474768873722014 0.0 1.0662185382991016 -0.0895699434872758 0.0 1.051832911812824 -0.1256213515487267 0.0 0.9432963490889869 -0.12195669104936553 0.0 0.9998647637843043 -0.07833894107452828 0.0 1.0546426092954715 0.0016447300701040056 0.0 0.8601462199769466 -0.06731679499598098 0.0 1.0470097860301928 -0.017990727741551263 0.0 0.9547996571572666 -0.02572482121102433 0.0 0.9995104258041512 -0.04727825112731041 0.0 0.7395129738744776 0.009415292609721815 0.0 0.8082358903928207 -0.014723003187286348 0.0 0.5217641998332431 -0.022250356466777088 0.0 0.9603789826105193 0.004807944826089153 0.0 1.071530815521272 0.008680545224994412 0.0 0.9311509596113865 0.025940472124922558 0.0 0.923731997746442 -0.02083323690677519 0.0 1.0344649916653443 0.015479806828396035 0.0 0.5390823536933436 0.0565785340223767 0.0 1.0111639274445234 0.023651477424224465 0.0 0.8055733330319599 0.04498788007961497 0.0 0.5307613144777759 0.1105593751581539 0.0 0.8014026484635789 0.06056681114201193 0.0 0.6002616514649735 0.07782385168877771 0.0 0.22948622605742 0.1426050451873542 0.0 0.7682516552975949 0.06381093422450487 0.0 0.3692534734561426 0.12149140300591903 0.0 1.1534941700420815 -0.06649173452867883 0.0 0.291075005626