<?xml version="1.0"?>
<VTKFile type="UnstructuredGrid"  version="0.1"  >
<UnstructuredGrid>
<Piece  NumberOfPoints="1289" NumberOfCells="2413">
<Points>
<DataArray  type="Float64"  NumberOfComponents="3"  format="ascii">0 0 0  0 0.41 0  2.2 0.41 0  2.2 0 0  0.1 0.1 0  0.1 0.3 0  0.8 0.3 0  0.8 0.1 0  0.25 0.2 0  0.248976 0.210065 0  0.245948 0.219718 0  0.241038 0.228563 0  0.234448 0.23624 0  0.226448 0.242432 0  0.217365 0.246888 0  0.207571 0.249423 0  0.197468 0.249936 0  0.187467 0.248404 0  0.17798 0.24489 0  0.169395 0.239539 0  0.162062 0.232569 0  0.156283 0.224265 0  0.152293 0.214968 0  0.150257 0.205058 0  0.150257 0.194942 0  0.152293 0.185032 0  0.156283 0.175735 0  0.162062 0.167431 0  0.169395 0.160461 0  0.17798 0.15511 0  0.187467 0.151596 0  0.197468 0.150064 0  0.207571 0.150577 0  0.217365 0.153112 0  0.226448 0.157568 0  0.234448 0.16376 0  0.241038 0.171437 0  0.245948 0.180282 0  0.248976 0.189935 0  1.1 0 0  1.1 0.41 0  0.1 0.2 0  0.45 0.1 0  0.45 0.3 0  0.55 0 0  0.275 0.1 0  0.275 0.3 0  0.275 0 0  0.55 0.41 0  0 0.205 0  0.825 0 0  0.825 0.41 0  0.275 0.41 0  0.1 0.15 0  0.1875 0.1 0  0.1 0.25 0  0.1875 0.3 0  0.132322 0.2 0  0.241426 0.253518 0  0.241426 0.146482 0  0.264574 0.17974 0  0.264574 0.22026 0  0.138434 0.187348 0  0.153372 0.150948 0  0.148413 0.164094 0  0.176495 0.136535 0  0.22768 0.143571 0  0.138434 0.212652 0  0.148413 0.235906 0  0.176495 0.263465 0  0.22768 0.256429 0  0.23125 0.3 0  0.24769 0.24094 0  0.23125 0.1 0  0.24769 0.15906 0  0.26253 0.193641 0  0.190482 0.137872 0  0.166753 0.146661 0  0.157737 0.244461 0  0.190482 0.262128 0  0.203107 0.261264 0  0.253635 0.22977 0  0.203107 0.138736 0  0.253635 0.17023 0  0.261028 0.206206 0  0.167707 0.251809 0  0.143629 0.224191 0  0.215302 0.2591 0  0.270465 0.245894 0  0.215302 0.1409 0  0.270465 0.154106 0  0.284052 0.202587 0  0.14375 0.3 0  0.209375 0.3 0  0.225966 0.278501 0  0.209375 0.1 0  0.225966 0.121499 0  0.211613 0.273759 0  0.211613 0.126241 0  0.143629 0.175809 0  0.1 0.175 0  0.133484 0.164832 0  0.144491 0.249539 0  0.1 0.225 0  0.133484 0.235168 0  0.3625 0.3 0  0.25691 0.253381 0  0.25691 0.146619 0  0.277205 0.188698 0  0.184724 0.275712 0  0.237372 0.268285 0  0.184724 0.124288 0  0.237372 0.131715 0  0.197578 0.273149 0  0.193656 0.286994 0  0.197578 0.126851 0  0.193656 0.113006 0  0.122953 0.187671 0  0.118362 0.153758 0  0.155372 0.258107 0  0.122953 0.212329 0  0.118362 0.246242 0  0.276394 0.27264 0  0.276394 0.12736 0  0.280965 0.170013 0  0.253125 0.3 0  0.14375 0.1 0  0.253125 0.1 0  0.269489 0.26014 0  0.269489 0.13986 0  0.303639 0.184297 0  0.165625 0.3 0  0.134742 0.273113 0  0.257831 0.274737 0  0.255279 0.128499 0  0.3625 0.1 0  0.165625 0.1 0  0.162031 0.132368 0  0.134955 0.126405 0  0.149334 0.125568 0  0.142936 0.139597 0  0.12695 0.140259 0  0.242514 0.285501 0  0.242514 0.114499 0  0.1 0.125 0  0.117483 0.12555 0  0.11154 0.139776 0  0.121875 0.1 0  0.109143 0.1125 0  0.126805 0.114 0  0.220313 0.29129 0  0.351562 0.287369 0  0.207222 0.2866 0  0.220312 0.10871 0  0.1375 0 0  0.20625 0 0  0.207222 0.1134 0  0.11722 0.17118 0  0.1 0.1625 0  0.0778409 0.16875 0  0.0862762 0.15625 0  0 0.15375 0  0 0.1025 0  0.11722 0.22882 0  0.1 0.2375 0  0 0.3075 0  0.0862762 0.23125 0  0.0598995 0.222547 0  0.0860223 0.2125 0  0.289584 0.181469 0  0.300267 0.16446 0  0.163832 0.269071 0  0.149597 0.273325 0  0.1 0.275 0  0.268498 0.285953 0  0.31875 0.3 0  0.294154 0.254672 0  0.296875 0.3 0  0.293558 0.271845 0  0.285095 0.286799 0  0.324298 0.264316 0  0.307866 0.263745 0  0.317093 0.234901 0  0.315485 0.281219 0  0.316547 0.250625 0  0.344693 0.243731 0  0.331592 0.251147 0  0.35129 0.270663 0  0.338689 0.263683 0  0.340625 0.3 0  0.249849 0.264383 0  0.265097 0.11422 0  0.284688 0.156136 0  0.242188 0.324017 0  0.0856613 0.2625 0  0.132812 0.0612217 0  0.264062 0.0612217 0  0.198437 0.07598340000000001 0  0.0860223 0.1375 0  0.0794526 0.191089 0  0.285228 0.140397 0  0.298655 0.148737 0  0.31875 0.1 0  0.327335 0.15374 0  0.296875 0.1 0  0.312289 0.155283 0  0.313348 0.135607 0  0.321802 0.173916 0  0.298433 0.134116 0  0.112124 0.2625 0  0.127526 0.259083 0  0.121875 0.3 0  0.0682687 0.241503 0  0.1 0.2875 0  0.117762 0.28125 0  0.107813 0.3 0  0.103906 0.313849 0  0.0778409 0.28125 0  0.1375 0.41 0  0.0862762 0.29375 0  0.08886860000000001 0.24375 0  0.307812 0.338778 0  0.307812 0.292227 0  0.33216 0.279164 0  0.387888 0.266414 0  0.264063 0.31948 0  0.110937 0.07598340000000001 0  0.242188 0.07598340000000001 0  0.319914 0.11839 0  0.340625 0.1 0  0.334448 0.133793 0  0.329687 0.108539 0  0.346259 0.118491 0  0.360334 0.173636 0  0.327539 0.205033 0  0.132812 0.288712 0  0.362436 0.278836 0  0.368105 0.259418 0  0.4125 0.41 0  0.329687 0.324017 0  0.329687 0.292306 0  0.285938 0.318952 0  0.417187 0.338778 0  0.324481 0.14148 0  0.351562 0.106771 0  0.40625 0.1 0  0.341028 0.168342 0  0.319221 0.190479 0  0.335292 0.184501 0  0.305563 0.20794 0  0.220313 0.31948 0  0.132812 0.332772 0  0.0865876 0.311259 0  0.0598995 0.302453 0  0.0906541 0.343255 0  0.353543 0.255837 0  0.36574 0.237633 0  0.405007 0.254279 0  0.275795 0.352123 0  0.4125 0 0  0.35493 0.137394 0  0.366563 0.120618 0  0.35917 0.205246 0  0.198438 0.318952 0  0.0626109 0.263892 0  0.40625 0.3 0  0.354809 0.155936 0  0.386512 0.146872 0  0.373101 0.159939 0  0.384375 0.1 0  0.343394 0.19929 0  0.350682 0.185683 0  0.368101 0.189748 0  0.344016 0.221511 0  0.391108 0.213329 0  0.376279 0.204783 0  0.398843 0.182768 0  0.375804 0.222746 0  0.390665 0.196958 0  0.394004 0.23518 0  0.359883 0.222828 0  0.419908 0.204359 0  0.404243 0.204783 0  0.412615 0.224526 0  0.20625 0.41 0  0.165625 0.325257 0  0.0347982 0.244954 0  0.379558 0.247154 0  0.34165 0.147603 0  0.372264 0.136992 0  0.388988 0.121989 0  0.373437 0.108554 0  0.351562 0.31948 0  0.391367 0.16527 0  0.399572 0.223324 0  0.452011 0.227371 0  0.40877 0.239392 0  0.431491 0.237337 0  0.421224 0.250459 0  0.449619 0.262098 0  0.418865 0.276779 0  0.437063 0.252274 0  0.415673 0.263227 0  0.430988 0.266772 0  0.402767 0.273419 0  0.452967 0.244883 0  0.428125 0.3 0  0.408502 0.286186 0  0.384375 0.3 0  0.392267 0.285807 0  0.465927 0.219339 0  0.43489 0.283846 0  0.376424 0.286289 0  0.625 0.3 0  0.473533 0.205186 0  0.461713 0.255517 0  0.5375 0.3 0  0.465725 0.235405 0  0.44631 0.201425 0  0.471875 0.3 0  0.494307 0.227729 0  0.459448 0.206736 0  0.462294 0.180792 0  0.478933 0.227536 0  0.486793 0.21381 0  0.486322 0.251373 0  0.50065 0.215318 0  0.54005 0.175389 0  0.474633 0.189893 0  0.512916 0.208697 0  0.49531 0.199967 0  0.475889 0.175275 0  0.625 0.1 0  0.459311 0.153933 0  0.513645 0.242704 0  0.392892 0.248539 0  0.374815 0.271913 0  0.365974 0.14871 0  0.395312 0.109184 0  0.417061 0.123981 0  0.483196 0.277003 0  0.381967 0.179632 0  0.429898 0.219374 0  0.433473 0.206165 0  0.43149 0.181038 0  0.444208 0.215487 0  0.472985 0.247309 0  0.49375 0.3 0  0.475579 0.262714 0  0.49916 0.274293 0  0.501175 0.184809 0  0.514164 0.225681 0  0.543648 0.214977 0  0.5341630000000001 0.23481 0  0.527396 0.216171 0  0.5375 0.1 0  0.534548 0.202315 0  0.561545 0.192513 0  0.5494289999999999 0.201221 0  0.570923 0.218346 0  0.412582 0.149833 0  0.489327 0.264745 0  0.502439 0.254775 0  0.462391 0.271166 0  0.496775 0.241732 0  0.5294410000000001 0.268606 0  0.482812 0.291099 0  0.46879 0.285038 0  0.452663 0.284065 0  0.51789 0.257882 0  0.53408 0.252026 0  0.560142 0.243543 0  0.545708 0.243474 0  0.547532 0.229019 0  0.55282 0.265323 0  0.398971 0.153424 0  0.400349 0.135684 0  0.410135 0.168145 0  0.428823 0.161323 0  0.415266 0.183779 0  0.329687 0.0810483 0  0.395312 0.0612217 0  0.373437 0.318952 0  0.439062 0.324017 0  0.561816 0.229354 0  0.585029 0.239287 0  0.431827 0.139854 0  0.446796 0.168929 0  0.351562 0.07598340000000001 0  0.395313 0.318944 0  0.54337 0.150762 0  0.460937 0.31948 0  0.418412 0.137529 0  0.428125 0.1 0  0.442783 0.152332 0  0.450742 0.134294 0  0.373437 0.0805201 0  0.384383 0.342558 0  0.482812 0.318952 0  0.429239 0.127457 0  0.444274 0.117405 0  0.426548 0.113815 0  0.49375 0.1 0  0.488954 0.113984 0  0.457973 0.121842 0  0.471621 0.137346 0  0.515625 0.325257 0  0.48125 0.41 0  0.417187 0.07598340000000001 0  0.496363 0.126778 0  0.479043 0.155715 0  0.439062 0.0805201 0  0.481795 0.126919 0  0.471875 0.1 0  0.489227 0.142159 0  0.515625 0.1 0  0.520062 0.147117 0  0.501244 0.161791 0  0.505431 0.112984 0  0.505344 0.14029 0  0.526563 0.119081 0  0.5181750000000001 0.131908 0  0.539868 0.136937 0  0.460937 0.108383 0  0.474242 0.114415 0  0.460937 0.0810483 0  0.487841 0.167168 0  0.526563 0.0612217 0  0.526563 0.106406 0  0.537619 0.112743 0  0.58125 0.1 0  0.559375 0.1 0  0.482812 0.08105569999999999 0  0.471883 0.0587655 0  0.570312 0.129396 0  0.548437 0.07598340000000001 0  0.504687 0.08105569999999999 0  0.49375 0.0470127 0  0.570312 0.112663 0  0.592798 0.12103 0  0.553986 0.12103 0  0.570312 0.0805201 0  0.48125 0 0  0.114787 0.2 0  0.160769 0.284765 0  0.175816 0.288361 0  0.162602 0.116048 0  0.154687 0.07598340000000001 0  0.176562 0.0805201 0  0.0598995 0.147547 0  0.307812 0.109924 0  0.291279 0.117157 0  0.278491 0.112989 0  0.285937 0.07598340000000001 0  0.307812 0.0805201 0  0.296928 0.196743 0  0.318141 0.218507 0  0.330208 0.227509 0  0.301397 0.225668 0  0.302706 0.241401 0  0.292574 0.21424 0  0.282762 0.230935 0  0.284351 0.244775 0  0.269553 0.23261 0  0.278572 0.217242 0  0.226924 0.342606 0  0.446928 0.185396 0  0.515625 0.3 0  0.504687 0.288879 0  0.515256 0.276534 0  0.529479 0.285328 0  0.58125 0.3 0  0.541969 0.272936 0  0.559375 0.3 0  0.556796 0.282529 0  0.543473 0.287206 0  0.581429 0.267774 0  0.566728 0.271171 0  0.570869 0.255585 0  0.577404 0.283865 0  0.603125 0.3 0  0.597531 0.28035 0  0.570312 0.338778 0  0.592188 0.292492 0  0.603513 0.256094 0  0.614063 0.286265 0  0.610329 0.27064 0  0.632708 0.251285 0  0.657223 0.261594 0  0.618789 0.257807 0  0.614188 0.22987 0  0.630935 0.265614 
[...]
<PointData  Vectors="v"> 
	<DataArray  type="Float64"  Name="v"  NumberOfComponents="3" format="ascii">
0.0 0.0 0.0 0.0 0.0 0.0 0.0 0.0 0.0 0.0 0.0 0.0 0.7965100707318306 -0.18744180716753753 0.0 0.8422715696634616 0.19992179931603118 0.0 0.9764755114166321 -0.034463396388226736 0.0 1.0042971925646043 0.027933480860407693 0.0 0.0 0.0 0.0 0.0 0.0 0.0 0.0 0.0 0.0 0.0 0.0 0.0 0.0 0.0 0.0 0.0 0.0 0.0 0.0 0.0 0.0 0.0 0.0 0.0 0.0 0.0 0.0 0.0 0.0 0.0 0.0 0.0 0.0 0.0 0.0 0.0 0.0 0.0 0.0 0.0 0.0 0.0 0.0 0.0 0.0 0.0 0.0 0.0 0.0 0.0 0.0 0.0 0.0 0.0 0.0 0.0 0.0 0.0 0.0 0.0 0.0 0.0 0.0 0.0 0.0 0.0 0.0 0.0 0.0 0.0 0.0 0.0 0.0 0.0 0.0 0.0 0.0 0.0 0.0 0.0 0.0 0.0 0.0 0.0 0.0 0.0 0.0 0.0 0.0 0.0 0.0 0.0 0.0 0.0 0.0 0.0 0.0 0.0 0.0 0.7648922654723072 0.0004783332023983446 0.0 1.2477630403864088 0.1343211713453143 0.0 1.1883553969657512 -0.11436970002286369 0.0 0.0 0.0 0.0 1.2972481553653117 -0.07817190239104907 0.0 1.3202193638591901 0.08634969404549973 0.0 0.0 0.0 0.0 0.0 0.0 0.0 1.0 0.0 0.0 0.0 0.0 0.0 0.0 0.0 0.0 0.0 0.0 0.0 0.846186447967638 -0.22671219463855227 0.0 1.1518024883483362 -0.3014316363314604 0.0 0.8690219025318751 0.22683810406266125 0.0 1.171893910780571 0.3084830067419897 0.0 0.43218231343881613 -0.001937373642451062 0.0 0.168167332356854 0.028345162931583286 0.0 0.17063602535915906 -0.021632752273064024 0.0 -0.04746388192303145 -0.04843682507578091 0.0 -0.049110815471907585 0.07982869569803039 0.0 0.3375063892400455 -0.27927333109884617 0.0 0.8713115630904963 -0.6700576384551026 0.0 0.6492499429688278 -0.6911996787901744 0.0 1.2403316898655892 -0.6012408548108599 0.0 0.3015999052069879 0.0032809325659500384 0.0 0.3346845807859413 0.27275723641404254 0.0 0.6547367630006259 0.6757190454113868 0.0 1.2246625667873348 0.6047571546057489 0.0 0.2942761697508783 0.0006023648856801886 0.0 1.2863007886529467 0.19100560162653557 0.0 -0.01993299298288019 0.05861893864070899 0.0 1.2696017551627712 -0.17634081334656376 0.0 -0.0172226497434497 -0.04879867185243661 0.0 -0.035620794494880786 -0.00807503707228987 0.0 1.2206372292003598 -0.3974890554374018 0.0 1.1253251813835228 -0.7283605305621056 0.0 0.8740454818668514 0.7807109660692484 0.0 1.236875540834831 0.4000174735252672 0.0 0.9153177187576645 0.1650795796542798 0.0 -0.038275184057722816 0.0783452694725136 0.0 0.9139474310992374 -0.16005481693192883 0.0 -0.037527415368456364 -0.05942956692462702 0.0 -0.03105382747697157 0.03979320071651964 0.0 1.0642913415928867 0.7306228180298054 0.0 0.4496874024133757 0.5356525717525976 0.0 0.5419373829073594 0.03183082233773979 0.0 0.08268450396755495 0.05790715748306642 0.0 0.5427421978756645 -0.030594656585118986 0.0 0.07642571478669505 -0.040332855766257406 0.0 -0.11059747979273163 0.02221902537718323 0.0 0.971180984032151 0.29890341543182125 0.0 1.2559259969758154 0.24435327825955488 0.0 1.3018017385839562 0.20243697816858092 0.0 1.2228587018043546 -0.24414220737294257 0.0 1.2883187985879418 -0.1969969313687173 0.0 1.3104021645558506 0.253380485125094 0.0 1.3032721976485764 -0.2463891552183893 0.0 0.44820019712461523 -0.54684052258564 0.0 0.8053812551772902 -0.1363838703942556 0.0 0.6778439419039126 -0.41621553844287207 0.0 0.8937885806094181 0.5942435112675305 0.0 0.8038262390926798 0.14305716148506673 0.0 0.6860241698434197 0.42147497172220044 0.0 1.279395660076849 -0.06775024414375731 0.0 0.19721035293746 0.03734732022790999 0.0 0.20492305683918619 -0.023012399979568984 0.0 -0.08580993761061531 -0.01909067549050466 0.0 1.306387969505731 0.4281395117286108 0.0 0.8857727098185596 0.06725218661860548 0.0 1.294112788424443 -0.4328294557843725 0.0 0.8895811488056017 -0.059972935267576064 0.0 1.3374680072481984 0.35946680535825454 0.0 1.2741264599091042 0.345199589830612 0.0 1.3245890080485916 -0.3572438462286025 0.0 1.258122755306388 -0.32655068890978967 0.0 0.587854848810477 -0.15826275851458987 0.0 0.8020796550177892 -0.32689616191806903 0.0 1.034573752045526 0.5983879250224283 0.0 0.5970221150687373 0.15260125852728545 0.0 0.8203863014085941 0.3301265739146581 0.0 0.8901422841144586 0.03626133525623057 0.0 0.891380898546367 -0.024841645771999283 0.0 -0.044141968131081545 -0.04525977397782772 0.0 1.31344852278768 0.1312066427109779 0.0 0.9321958709454128 -0.3038748430687194 0.0 1.2882567025939484 -0.12079798218520839 0.0 0.4203563418777902 0.031497459754429406 0.0 0.43025806752268886 -0.01359554523751087 0.0 -0.12936256176259145 -0.017706256557085867 0.0 1.065023546831036 0.3233370224737314 0.0 0.9546507288657862 0.38152735567588664 0.0 1.0406182652751712 0.07032979624062158 0.0 0.915881015014121 -0.04742703462228272 0.0 1.2731718805127394 0.03849350159456843 0.0 1.0309151924341606 -0.3169607380627607 0.0 1.095447962355173 -0.5561284021894505 0.0 0.9383401720909946 -0.3776063698510573 0.0 1.0097868282453997 -0.42291044471390427 0.0 0.9451409086932329 -0.5353584424259002 0.0 0.8728774837827555 -0.39894868270895545 0.0 1.3160215485714817 0.15468544338689375 0.0 1.29717461789063 -0.14745315381528468 0.0 0.8552065404387662 -0.22827368621028016 0.0 0.8836601336446082 -0.30062307768027163 0.0 0.8575501571266116 -0.29216226046223914 0.0 0.8520861360529122 -0.24399608391538075 0.0 0.8562953124221998 -0.24297749242302957 0.0 0.9005042807706622 -0.3069816603140979 0.0 1.3197648768711507 0.2259020219942825 0.0 1.1948316375462382 -0.06177430378991246 0.0 1.3313012986791277 0.28728578886918227 0.0 1.3036546387286934 -0.2105260750041597 0.0 0.0 0.0 0.0 0.0 0.0 0.0 1.3070159409623578 -0.27695904633436347 0.0 0.7189864585159711 -0.2643636567967773 0.0 0.8237969074374475 -0.2066726841002794 0.0 0.8733899213236852 -0.10747426524793936 0.0 0.8650051894789572 -0.15954488985257761 0.0 0.9375 0.0 0.0 0.7500000000000001 0.0 0.0 0.7285397223785204 0.2661619082966377 0.0 0.8290426013357919 0.19927338909195072 0.0 0.7499999999999999 0.0 0.0 0.8731147559005007 0.12731752781414069 0.0 0.9303656774740183 0.042835790384174365 0.0 0.8511249305339563 0.04595502501790734 0.0 -0.09802567992568385 -0.02690088316379844 0.0 0.0001667155751132513 -0.029430511473906632 0.0 1.141606137338214 0.5389892913718143 0.0 1.0357004690491973 0.46044244904804144 0.0 0.8849856758458537 0.23995284116197432 0.0 1.260562361446759 0.08290040268907928 0.0 1.309311668691542 0.0032648249575661817 0.0 0.30795870421007143 0.02624562555734977 0.0 1.3224774862420767 0.04250609952098971 0.0 0.8432777689558983 0.014228135112988606 0.0 1.2438711101617108 0.05072569977851334 0.0 0.6223955705521168 -0.018306707053860005 0.0 0.5793581986181249 0.002996784445159836 0.0 0.01311220732028161 0.03327332085247576 0.0 1.1010290760982033 -0.007998292417795339 0.0 0.2594397440894789 0.015789721364304832 0.0 0.1705262798511983 -0.008771392312628546 0.0 0.2961766863592317 -0.0007112045248332773 0.0 0.8336163265092748 -0.06101874313384512 0.0 0.6234819143381769 -0.03497779293959154 0.0 1.3030488645603626 -0.03634048716255432 0.0 0.614674263504401 0.0299036584900763 0.0 1.2550719247812332 -0.08534910628044241 0.0 0.07772815517592861 -0.031946401281568136 0.0 1.1537137517999445 0.11223642788698325 0.0 0.8860738216690371 0.1764572982873016 0.0 0.6945659074188966 -0.15531690233514137 0.0 1.0439966677841142 -0.059438003322557345 0.0 1.0154500667150057 -0.18426734907080844 0.0 0.8658009586198837 -0.17710913311502624 0.0 0.8778391191977836 -0.023717480988957165 0.0 0.41951643378537123 -0.009388666185390937 0.0 0.22391508296600307 -0.013048253519373594 0.0 1.2856993378114818 -0.006993687918371091 0.0 0.16945475369253868 -0.00991665504015189 0.0 1.2970952143956127 -0.040095701570161596 0.0 0.12488411260756734 -0.016364975182535033 0.0 0.5847923728361283 0.0127835287114264 0.0 -0.0814108667289057 -0.02407560267200971 0.0 0.6235012396508167 0.003598244432443915 0.0 0.8858138175153294 0.29231515250943296 0.0 0.8897430352803802 0.40647597413650793 0.0 0.8880339050419349 0.2581480038274218 0.0 0.914464633655768 0.10872431466794945 0.0 0.8682313904472759 0.21612380307967596 0.0 0.9107845371742447 0.2950697704922265 0.0 0.8595858909153833 0.22432159767916515 0.0 0.8026234364513994 0.17440612422157345 0.0 0.8689662075237609 0.15729813653113167 0.0 0.0 0.0 0.0 0.8430543226982491 0.17089716378389824 0.0 0.8744783188173603 0.16943743594828214 0.0 1.1177074248117949 0.006098545690725834 0.0 1.2823262828964386 0.014098255351106585 0.0 1.0447115680877406 -0.03416773862478453 0.0 0.7626041845943766 -0.10583976439409068 0.0 1.2166577376986225 0.08503263363563138 0.0 0.7150708573048082 -0.1634892593861066 0.0 1.1216877626635458 -0.11212363246739618 0.0 1.0807778381253967 0.00675837885170368 0.0 1.2812696827293213 0.01813359070327511 0.0 0.6564723375469688 0.022621973518290844 0.0 1.2377975249701565 0.010489447390854313 0.0 1.0677711856787544 0.030294174796349615 0.0 -0.07164025211887053 -0.034701337259530673 0.0 -0.19284924742825904 0.00493305359857607 0.0 0.9523000836799724 0.3278572737692002 0.0 1.041494369842896 -0.08210089460008556 0.0 0.5571119560740524 -0.06978372953396729 0.0 0.0 0.0 0.0 1.2190470216999203 -0.015599706038611832 0.0 1.2692045033950734 -0.02852154533331124 0.0 1.2365613130037658 0.053834420947416056 0.0 1.0820208187370677 -0.07576753693247792 0.0 0.4294689402422037 0.006017485561662772 0.0 1.239474521856796 0.03206327467426557 0.0 1.2650949711160624 0.08310948263004535 0.0 -0.02238334484802047 -0.024969795173651336 0.0 -0.17129052753440768 -0.010073131726104708 0.0 -0.16206755127914835 -0.021866004501449997 0.0 -0.15388607679840283 0.024885215358224723 0.0 1.1549759570990834 0.16325280437402923 0.0 0.7744904414479999 0.18380765095392243 0.0 0.7784072576950173 0.14774586907460563 0.0 0.7862876500835172 0.10340831068454635 0.0 0.6186375273572139 0.10474816451306235 0.0 0.44458782180267237 -0.04214615787150972 0.0 0.08907423919742977 -0.03748029935177244 0.0 0.4843799755726679 -0.11178588359512119 0.0 0.9905366724036728 0.038691983018758605 0.0 0.0 0.0 0.0 0.5836792451728849 0.02307426038857777 0.0 1.024194517723058 0.04526366616049651 0.0 -0.22343138718170402 -0.026654362539205608 0.0 1.0825460221399885 0.22030827952582993 0.0 0.9017348161903895 0.11012643775712998 0.0 1.2389393991440494 -0.10885170252860632 0.0 0.1726413278457972 -0.012301414899387802 0.0 0.41936037098594525 0.00909045317326805 0.0 0.13580733186885088 -0.02191684442014085 0.0 1.2716141275837376 0.06144000055343019 0.0 -0.21550503112446165 -0.014582684198076313 0.0 -0.17709330041887011 -0.029692924335846728 0.0 -0.2060838379752532 -0.042890051971199446 0.0 -0.12262973205477407 0.0009838960553978163 0.0 -0.19572519357769833 -0.06411806961802946 0.0 -0.23275828301600948 -0.04681697591353313 0.0 -0.1409968978196936 -0.06269596821566181 0.0 -0.1137133996230168 -0.04526109020946599 0.0 -0.2346144017355766 -0.0640416563642525 0.0 0.07298011316787377 -0.07553425349354657 0.0 -0.11173331631461401 -0.020190501386172885 0.0 -0.22910246856679212 -0.09058573096270052 0.0 -0.2350892334444045 -0.07920466125332264 0.0 -0.07743522847857032 -0.0935205668801845 0.0 0.0 0.0 0.0 0.9395850075060538 0.22891386649557421 0.0 0.9517873147974153 0.039606367229943304 0.0 0.2876978106707692 -0.06819166524786409 0.0 0.3114099786976539 0.0018242639227607658 0.0 0.6267478688028849 0.028251092321708627 0.0 1.0164273196583886 0.05934759713515396 0.0 1.220273332751977 0.05294615491592825 0.0 1.24192081146178 -0.04077379599925957 0.0 0.08224599581316613 -0.03515746900442251 0.0 -0.09880599962963571 -0.07688479785956918 0.0 -0.01244217504966786 -0.10915733802416211 0.0 0.1636896752253216 -0.09889973816733495 0.0 0.14553868186227992 -0.11442118403722337 0.0 0.41259591133528417 -0.12053299770317875 0.0 0.7000324509140555 -0.13377047805488193 0.0 0.9984397711223908 -0.13287018758077027 0.0 0.4689095945436976 -0.12841364408625794 0.0 0.7088602832580341 -0.12911167023990425 0.0 0.7980904612339859 -0.1368069260946242 0.0 0.9337714554247287 -0.1254697652972318 0.0 0.3157602687859377 -0.12140502099930997 0.0 1.212868054433941 -0.11607876842315132 0.0 1.1435927781184603 -0.12422686102246051 0.0 1.2636450085430422 -0.09137636060865635 0.0 1.152108547480949 -0.1129920812920789 0.0 -0.1072339525693686 -0.0963692211796442 0.0 1.096425417187398 -0.13153731447119385 0.0 1.1686837266068462 -0.09871495290458161 0.0 1.1563679651217056 -0.11011542653423594 0.0 -0.16957012636984944 -0.06920090730928548 0.0 0.5566229539550119 -0.12408550266214266 0.0 1.1453337792743532 -0.07746775074866367 0.0 0.1333535807317022 -0.10871562511925664 0.0 -0.2065169945130843 -0.08705302070487679 0.0 1.1684036388593195 -0.10563668498560164 0.0 0.02901723410733695 -0.06966481675799958 0.0 -0.19056360763587205 -0.08536459711254242 0.0 0.013471898379670968 -0.02548170298458288 0.0 0.009242069282282411 -0.08693374248798419 0.0 -0.12651600344269828 -0.06293089569193337 0.0 0.4799264133276294 -0.10277034654382905 0.0 -0.09528552246881491 -0.041316359287052934 0.0 0.35929339189044296 0.15007275762109473 0.0 -0.07424402780574199 -0.03419781519813573 0.0 -0.09199993061147115 -0.0013225089497520518 0.0 -0.10697926214695813 -0.018746106987136173 0.0 0.14816006831244166 0.017091805556615908 0.0 1.006855028967908 0.08140778002620556 0.0 0.5034270979779112 0.05690945276883078 0.0 0.32087857149091853 -0.0577424262881297 0.0 0.3363284169570122 -0.09087917817150876 0.0 0.8836371330041292 -0.09388798694372164 0.0 0.3339640845529229 0.0010519946082749305 0.0 1.2141486304092648 0.0745577735503614 0.0 1.015585509082989 0.08520372905864312 0.0 0.9789965802556462 -0.11094430695901521 0.0 -0.1229452760848157 -0.05088019326573633 0.0 -0.1322457672874892 -0.10256275778727938 0.0 -0.21642677541319047 -0.09556098784438002 0.0 -0.07086261712717853 -0.06006495168189241 0.0 -0.1588061153286416 -0.10369857110738832 0.0 0.3817081154865964 -0.11207409361503089 0.0 1.1543034232674036 -0.09318384693787883 0.0 0.7205828879138606 -0.11736519483623833 0.0 0.9387904806425593 -0.09764572121524626 0.0 0.07670466057439898 0.04007469383995378 0.0 0.027193519928516353 -0.031239501109984517 0.0 -0.007034015548726479 0.05003144180242744 0.0 0.20229144649273165 -0.014389916127288826 0.0 -0.03831614591846585 0.013968858414003976 0.0 1.141145657686301 0.18011274215800122 0.0 -0.018140827771284836 0.06202924324275088 0.0 0.14459729453023284 0.13822625335213207 0.0 0.028635776683446457 0.0967816417115545 0.0 0.08558439152260051 0.08492758726452548 0.0 0.431368071293614 0.011551228754281684 0.0 0.7651800854108293 -0.10434894829797055 0.0 0.5641360474448951 -0.08422304828678494 0.0 0.8874858189411878 -0.12770903558336752 0.0 0.28196535417503443 -0.08241752852506029 0.0 0.8572500254922634 -0.0675436777953875 0.0 1.1264579925732243 -0.10471832244562344 0.0 1.0856668779943113 -0.1181069591524694 0.0 1.0857874119298847 -0.12624554954730502 0.0 0.6410221707585628 -0.06864333094175303 0.0 0.5400478070909264 -0.04420675950765232 0.0 0.4228672598762391 0.0011822063741223057 0.0 0.38789057637636326 -0.012798213475585848 0.0 0.13973740663733242 0.022301554583856558 0.0 0.8285270190039875 -0.0502122005865856 0.0 0.31604659281634045 -0.006176204846579452 0.0 0.723770036522674 0.04447910384466433 0.0 0.07405699962397266 -0.040508189106830184 0.0 0.2479471565460468 -0.010112086517923223 0.0 -0.1315711233993307 -0.06753054570400897 0.0 1.2284692062834393 0.00508182786472091 0.0 1.092917831272613 0.06158398129136548 0.0 1.2341196371780832 -0.06554070005187902 0.0 1.152515967721723 -0.09199552072128903 0.0 0.18105192995746422 0.042949219134690284 0.0 0.4183046831561547 0.027009737163156876 0.0 0.7152625426506185 0.0624916171352125 0.0 0.16214217275920806 -0.013478967792470686 0.0 1.2000010563108754 0.027155444621010664 0.0 1.2137092139074988 -0.08278391239267202 0.0 0.804943709901219 0.2064487395731773 0.0 1.1524974535791515 -0.09312779407315824 0.0 0.7264228699052624 0.05410253256440014 0.0 1.2590634590477545 0.10983195234633787 0.0 0.4780981662795692 0.036467559680756025 0.0 0.8884244517932482 0.10731278056024367 0.0 1.2266340624261576 0.047102042032019495 0.0 1.0824004342091804 -0.060861372650750666 0.0 1.1386114653677353 -0.08912465263104023 0.0 0.9720333135641632 0.09144904606999174 0.0 1.1539802089340059 0.12767378203757104 0.0 1.1840381985392308 0.10827921345495516 0.0 1.2088988104792169 0.17492622979919992 0.0 1.1952426564313583 0.18552312632347404 0.0 1.114561057974838 0.14313404424154846 0.0 0.8849002378045311 0.13501229318286354 0.0 1.0873947397390171 -0.07661917017479904 0.0 0.0 0.0 0.0 1.1859452612046608 0.08799057364391503 0.0 1.090242253933265 0.1905368996345312 0.0 0.537086537612023 0.09027883851392436 0.0 1.1992950941742664 0.11326975016108712 0.0 1.0759751997821263 0.17277960244694618 0.0 1.232749478045661 0.15606120320105835 0.0 0.8413664272379778 0.15375917511110263 0.0 1.1756461577225348 0.18268825935988794 0.0 0.8250215115341462 0.19047008460426457 0.0 0.4942207389540372 0.11810807912634798 0.0 1.1863735639248323 0.1975445150697345 0.0 0.9118521177668579 0.18479354864122557 0.0 1.1460191901501708 0.2100994978251 0.0 1.0457306665891017 0.21067078452540908 0.0 0.9955121607246333 0.21782111331311518 0.0 1.2296118842739463 0.15254839824584843 0.0 1.1950576981652665 0.16824499118068265 0.0 1.1789053927759476 0.13351925538171294 0.0 0.3406583372017644 0.06839629662793124 0.0 0.9128434949778017 0.11409571127822418 0.0 1.1685356527599717 0.19535963129118825 0.0 1.1489331507909246 0.201423178115818 0.0 1.065810827704091 0.14447454855128414 0.0 1.1024459145221346 0.1686305025952401 0.0 1.1461606214588684 0.14504747328674075 0.0 1.0058312220402847 0.10154172789142116 0.0 1.0489325187425345 0.19878349944010418 0.0 0.9983183880836559 0.13210864111101858 0.0 1.1184324115004778 0.1502169453865138 0.0 0.8088555063274937 0.08850153974047173 0.0 1.1002510527640703 0.1767858606010759 0.0 1.0577191383241948 0.15985606550035902 0.0 1.1089064488801117 0.20419924297676217 0.0 0.9921084797602253 0.12296640195190071 0.0 0.0 0.0 0.0 0.6487773636941236 -0.0036806000469722373 0.0 1.0938770958290982 0.4107034178211278 0.0 1.186369158886214 0.38664461272380024 0.0 1.095387853195414 -0.40140233193148334 0.0 0.857666882309348 -0.20635664652483696 0.0 0.9688845989513244 -0.22453954874946627 0.0 0.8934339065929032 -0.08184517983222846 0.0 1.2460903336835434 -0.018001672212045905 0.0 1.1517285154100791 -0.027667142751451535 0.0 1.2401171965674385 -0.057261206578633005 0.0 1.1759008546786736 -0.0414894126845984 0.0 1.2178183339629916 -0.017656667635341558 0.0 -0.1438929567544286 0.005148701458895543 0.0 -0.12836017997836596 0.02931588356702973 0.0 -0.06366017016971029 0.01859632170937441 0.0 -0.07043935905405067 0.050779037592636876 0.0 0.08155653229381456 0.04517010705075474 0.0 -0.11295406090751099 0.04464960055864709 0.0 -0.03184607866091831 0.0721004382306332 0.0 0.10155076009057458 0.05503572378855687 0.0 -0.028982646327283132 0.0835997920694235 0.0 -0.07937168556701686 0.06284064094727775 0.0 0.9895749329793242 0.11693945089211764 0.0 -0.09149940353147072 -0.06099795714308397 0.0 1.1472185519832867 -0.08317684673105398 0.0 1.1028958758838476 -0.09160455987958267 0.0 0.9741180094008994 -0.08380080021083644 0.0 1.076613926095636 -0.07660120836968713 0.0 1.1534611253742455 -0.08332813456554115 0.0 0.9387741478692826 -0.06403578698574759 0.0 1.150114285814405 -0.07620228085108523 0.0 1.0665620731131653 -0.06802920927343908 0.0 1.0962479163265804 -0.0726100563188144 0.0 0.9185561661185798 -0.051586308547558586 0.0 0.9440354810309265 -0.05471240048740869 0.0 0.6850498265881388 -0.023358152987268083 0.0 1.0951090005275907 -0.07249720852719531 0.0 1.1571476967905894 -0.09523565452373796 0.0 1.0902323513986214 -0.07953513661489135 0.0 0.9756893059294981 -0.07020794395473592 0.0 1.1488611127792454 -0.08620575090809063 0.0 0.7853026426147045 -0.03315970908496943 0.0 1.1406218963121961 -0.09866699537750845 0.0 1.0143170342392 -0.07529246386832736 0.0 0.8020879337279901 -0.04990929731634614 0.0 1.0081563986696138 -0.11331717112461022 0.0 0.8594097727536824 -0.053139135396777545 0.0 0.3732089573424475 0.05559617158011654 0.0 0.9978052634025201 -0.08757399500040358 0.0 0.6206554834788179 -0.004415506387899964 0.0 1.