<?xml version="1.0"?>
<VTKFile type="UnstructuredGrid"  version="0.1"  >
<UnstructuredGrid>
<Piece  NumberOfPoints="1289" NumberOfCells="2413">
<Points>
<DataArray  type="Float64"  NumberOfComponents="3"  format="ascii">0 0 0  0 0.41 0  2.2 0.41 0  2.2 0 0  0.1 0.1 0  0.1 0.3 0  0.8 0.3 0  0.8 0.1 0  0.25 0.2 0  0.248976 0.210065 0  0.245948 0.219718 0  0.241038 0.228563 0  0.234448 0.23624 0  0.226448 0.242432 0  0.217365 0.246888 0  0.207571 0.249423 0  0.197468 0.249936 0  0.187467 0.248404 0  0.17798 0.24489 0  0.169395 0.239539 0  0.162062 0.232569 0  0.156283 0.224265 0  0.152293 0.214968 0  0.150257 0.205058 0  0.150257 0.194942 0  0.152293 0.185032 0  0.156283 0.175735 0  0.162062 0.167431 0  0.169395 0.160461 0  0.17798 0.15511 0  0.187467 0.151596 0  0.197468 0.150064 0  0.207571 0.150577 0  0.217365 0.153112 0  0.226448 0.157568 0  0.234448 0.16376 0  0.241038 0.171437 0  0.245948 0.180282 0  0.248976 0.189935 0  1.1 0 0  1.1 0.41 0  0.1 0.2 0  0.45 0.1 0  0.45 0.3 0  0.55 0 0  0.275 0.1 0  0.275 0.3 0  0.275 0 0  0.55 0.41 0  0 0.205 0  0.825 0 0  0.825 0.41 0  0.275 0.41 0  0.1 0.15 0  0.1875 0.1 0  0.1 0.25 0  0.1875 0.3 0  0.132322 0.2 0  0.241426 0.253518 0  0.241426 0.146482 0  0.264574 0.17974 0  0.264574 0.22026 0  0.138434 0.187348 0  0.153372 0.150948 0  0.148413 0.164094 0  0.176495 0.136535 0  0.22768 0.143571 0  0.138434 0.212652 0  0.148413 0.235906 0  0.176495 0.263465 0  0.22768 0.256429 0  0.23125 0.3 0  0.24769 0.24094 0  0.23125 0.1 0  0.24769 0.15906 0  0.26253 0.193641 0  0.190482 0.137872 0  0.166753 0.146661 0  0.157737 0.244461 0  0.190482 0.262128 0  0.203107 0.261264 0  0.253635 0.22977 0  0.203107 0.138736 0  0.253635 0.17023 0  0.261028 0.206206 0  0.167707 0.251809 0  0.143629 0.224191 0  0.215302 0.2591 0  0.270465 0.245894 0  0.215302 0.1409 0  0.270465 0.154106 0  0.284052 0.202587 0  0.14375 0.3 0  0.209375 0.3 0  0.225966 0.278501 0  0.209375 0.1 0  0.225966 0.121499 0  0.211613 0.273759 0  0.211613 0.126241 0  0.143629 0.175809 0  0.1 0.175 0  0.133484 0.164832 0  0.144491 0.249539 0  0.1 0.225 0  0.133484 0.235168 0  0.3625 0.3 0  0.25691 0.253381 0  0.25691 0.146619 0  0.277205 0.188698 0  0.184724 0.275712 0  0.237372 0.268285 0  0.184724 0.124288 0  0.237372 0.131715 0  0.197578 0.273149 0  0.193656 0.286994 0  0.197578 0.126851 0  0.193656 0.113006 0  0.122953 0.187671 0  0.118362 0.153758 0  0.155372 0.258107 0  0.122953 0.212329 0  0.118362 0.246242 0  0.276394 0.27264 0  0.276394 0.12736 0  0.280965 0.170013 0  0.253125 0.3 0  0.14375 0.1 0  0.253125 0.1 0  0.269489 0.26014 0  0.269489 0.13986 0  0.303639 0.184297 0  0.165625 0.3 0  0.134742 0.273113 0  0.257831 0.274737 0  0.255279 0.128499 0  0.3625 0.1 0  0.165625 0.1 0  0.162031 0.132368 0  0.134955 0.126405 0  0.149334 0.125568 0  0.142936 0.139597 0  0.12695 0.140259 0  0.242514 0.285501 0  0.242514 0.114499 0  0.1 0.125 0  0.117483 0.12555 0  0.11154 0.139776 0  0.121875 0.1 0  0.109143 0.1125 0  0.126805 0.114 0  0.220313 0.29129 0  0.351562 0.287369 0  0.207222 0.2866 0  0.220312 0.10871 0  0.1375 0 0  0.20625 0 0  0.207222 0.1134 0  0.11722 0.17118 0  0.1 0.1625 0  0.0778409 0.16875 0  0.0862762 0.15625 0  0 0.15375 0  0 0.1025 0  0.11722 0.22882 0  0.1 0.2375 0  0 0.3075 0  0.0862762 0.23125 0  0.0598995 0.222547 0  0.0860223 0.2125 0  0.289584 0.181469 0  0.300267 0.16446 0  0.163832 0.269071 0  0.149597 0.273325 0  0.1 0.275 0  0.268498 0.285953 0  0.31875 0.3 0  0.294154 0.254672 0  0.296875 0.3 0  0.293558 0.271845 0  0.285095 0.286799 0  0.324298 0.264316 0  0.307866 0.263745 0  0.317093 0.234901 0  0.315485 0.281219 0  0.316547 0.250625 0  0.344693 0.243731 0  0.331592 0.251147 0  0.35129 0.270663 0  0.338689 0.263683 0  0.340625 0.3 0  0.249849 0.264383 0  0.265097 0.11422 0  0.284688 0.156136 0  0.242188 0.324017 0  0.0856613 0.2625 0  0.132812 0.0612217 0  0.264062 0.0612217 0  0.198437 0.07598340000000001 0  0.0860223 0.1375 0  0.0794526 0.191089 0  0.285228 0.140397 0  0.298655 0.148737 0  0.31875 0.1 0  0.327335 0.15374 0  0.296875 0.1 0  0.312289 0.155283 0  0.313348 0.135607 0  0.321802 0.173916 0  0.298433 0.134116 0  0.112124 0.2625 0  0.127526 0.259083 0  0.121875 0.3 0  0.0682687 0.241503 0  0.1 0.2875 0  0.117762 0.28125 0  0.107813 0.3 0  0.103906 0.313849 0  0.0778409 0.28125 0  0.1375 0.41 0  0.0862762 0.29375 0  0.08886860000000001 0.24375 0  0.307812 0.338778 0  0.307812 0.292227 0  0.33216 0.279164 0  0.387888 0.266414 0  0.264063 0.31948 0  0.110937 0.07598340000000001 0  0.242188 0.07598340000000001 0  0.319914 0.11839 0  0.340625 0.1 0  0.334448 0.133793 0  0.329687 0.108539 0  0.346259 0.118491 0  0.360334 0.173636 0  0.327539 0.205033 0  0.132812 0.288712 0  0.362436 0.278836 0  0.368105 0.259418 0  0.4125 0.41 0  0.329687 0.324017 0  0.329687 0.292306 0  0.285938 0.318952 0  0.417187 0.338778 0  0.324481 0.14148 0  0.351562 0.106771 0  0.40625 0.1 0  0.341028 0.168342 0  0.319221 0.190479 0  0.335292 0.184501 0  0.305563 0.20794 0  0.220313 0.31948 0  0.132812 0.332772 0  0.0865876 0.311259 0  0.0598995 0.302453 0  0.0906541 0.343255 0  0.353543 0.255837 0  0.36574 0.237633 0  0.405007 0.254279 0  0.275795 0.352123 0  0.4125 0 0  0.35493 0.137394 0  0.366563 0.120618 0  0.35917 0.205246 0  0.198438 0.318952 0  0.0626109 0.263892 0  0.40625 0.3 0  0.354809 0.155936 0  0.386512 0.146872 0  0.373101 0.159939 0  0.384375 0.1 0  0.343394 0.19929 0  0.350682 0.185683 0  0.368101 0.189748 0  0.344016 0.221511 0  0.391108 0.213329 0  0.376279 0.204783 0  0.398843 0.182768 0  0.375804 0.222746 0  0.390665 0.196958 0  0.394004 0.23518 0  0.359883 0.222828 0  0.419908 0.204359 0  0.404243 0.204783 0  0.412615 0.224526 0  0.20625 0.41 0  0.165625 0.325257 0  0.0347982 0.244954 0  0.379558 0.247154 0  0.34165 0.147603 0  0.372264 0.136992 0  0.388988 0.121989 0  0.373437 0.108554 0  0.351562 0.31948 0  0.391367 0.16527 0  0.399572 0.223324 0  0.452011 0.227371 0  0.40877 0.239392 0  0.431491 0.237337 0  0.421224 0.250459 0  0.449619 0.262098 0  0.418865 0.276779 0  0.437063 0.252274 0  0.415673 0.263227 0  0.430988 0.266772 0  0.402767 0.273419 0  0.452967 0.244883 0  0.428125 0.3 0  0.408502 0.286186 0  0.384375 0.3 0  0.392267 0.285807 0  0.465927 0.219339 0  0.43489 0.283846 0  0.376424 0.286289 0  0.625 0.3 0  0.473533 0.205186 0  0.461713 0.255517 0  0.5375 0.3 0  0.465725 0.235405 0  0.44631 0.201425 0  0.471875 0.3 0  0.494307 0.227729 0  0.459448 0.206736 0  0.462294 0.180792 0  0.478933 0.227536 0  0.486793 0.21381 0  0.486322 0.251373 0  0.50065 0.215318 0  0.54005 0.175389 0  0.474633 0.189893 0  0.512916 0.208697 0  0.49531 0.199967 0  0.475889 0.175275 0  0.625 0.1 0  0.459311 0.153933 0  0.513645 0.242704 0  0.392892 0.248539 0  0.374815 0.271913 0  0.365974 0.14871 0  0.395312 0.109184 0  0.417061 0.123981 0  0.483196 0.277003 0  0.381967 0.179632 0  0.429898 0.219374 0  0.433473 0.206165 0  0.43149 0.181038 0  0.444208 0.215487 0  0.472985 0.247309 0  0.49375 0.3 0  0.475579 0.262714 0  0.49916 0.274293 0  0.501175 0.184809 0  0.514164 0.225681 0  0.543648 0.214977 0  0.5341630000000001 0.23481 0  0.527396 0.216171 0  0.5375 0.1 0  0.534548 0.202315 0  0.561545 0.192513 0  0.5494289999999999 0.201221 0  0.570923 0.218346 0  0.412582 0.149833 0  0.489327 0.264745 0  0.502439 0.254775 0  0.462391 0.271166 0  0.496775 0.241732 0  0.5294410000000001 0.268606 0  0.482812 0.291099 0  0.46879 0.285038 0  0.452663 0.284065 0  0.51789 0.257882 0  0.53408 0.252026 0  0.560142 0.243543 0  0.545708 0.243474 0  0.547532 0.229019 0  0.55282 0.265323 0  0.398971 0.153424 0  0.400349 0.135684 0  0.410135 0.168145 0  0.428823 0.161323 0  0.415266 0.183779 0  0.329687 0.0810483 0  0.395312 0.0612217 0  0.373437 0.318952 0  0.439062 0.324017 0  0.561816 0.229354 0  0.585029 0.239287 0  0.431827 0.139854 0  0.446796 0.168929 0  0.351562 0.07598340000000001 0  0.395313 0.318944 0  0.54337 0.150762 0  0.460937 0.31948 0  0.418412 0.137529 0  0.428125 0.1 0  0.442783 0.152332 0  0.450742 0.134294 0  0.373437 0.0805201 0  0.384383 0.342558 0  0.482812 0.318952 0  0.429239 0.127457 0  0.444274 0.117405 0  0.426548 0.113815 0  0.49375 0.1 0  0.488954 0.113984 0  0.457973 0.121842 0  0.471621 0.137346 0  0.515625 0.325257 0  0.48125 0.41 0  0.417187 0.07598340000000001 0  0.496363 0.126778 0  0.479043 0.155715 0  0.439062 0.0805201 0  0.481795 0.126919 0  0.471875 0.1 0  0.489227 0.142159 0  0.515625 0.1 0  0.520062 0.147117 0  0.501244 0.161791 0  0.505431 0.112984 0  0.505344 0.14029 0  0.526563 0.119081 0  0.5181750000000001 0.131908 0  0.539868 0.136937 0  0.460937 0.108383 0  0.474242 0.114415 0  0.460937 0.0810483 0  0.487841 0.167168 0  0.526563 0.0612217 0  0.526563 0.106406 0  0.537619 0.112743 0  0.58125 0.1 0  0.559375 0.1 0  0.482812 0.08105569999999999 0  0.471883 0.0587655 0  0.570312 0.129396 0  0.548437 0.07598340000000001 0  0.504687 0.08105569999999999 0  0.49375 0.0470127 0  0.570312 0.112663 0  0.592798 0.12103 0  0.553986 0.12103 0  0.570312 0.0805201 0  0.48125 0 0  0.114787 0.2 0  0.160769 0.284765 0  0.175816 0.288361 0  0.162602 0.116048 0  0.154687 0.07598340000000001 0  0.176562 0.0805201 0  0.0598995 0.147547 0  0.307812 0.109924 0  0.291279 0.117157 0  0.278491 0.112989 0  0.285937 0.07598340000000001 0  0.307812 0.0805201 0  0.296928 0.196743 0  0.318141 0.218507 0  0.330208 0.227509 0  0.301397 0.225668 0  0.302706 0.241401 0  0.292574 0.21424 0  0.282762 0.230935 0  0.284351 0.244775 0  0.269553 0.23261 0  0.278572 0.217242 0  0.226924 0.342606 0  0.446928 0.185396 0  0.515625 0.3 0  0.504687 0.288879 0  0.515256 0.276534 0  0.529479 0.285328 0  0.58125 0.3 0  0.541969 0.272936 0  0.559375 0.3 0  0.556796 0.282529 0  0.543473 0.287206 0  0.581429 0.267774 0  0.566728 0.271171 0  0.570869 0.255585 0  0.577404 0.283865 0  0.603125 0.3 0  0.597531 0.28035 0  0.570312 0.338778 0  0.592188 0.292492 0  0.603513 0.256094 0  0.614063 0.286265 0  0.610329 0.27064 0  0.632708 0.251285 0  0.657223 0.261594 0  0.618789 0.257807 0  0.614188 0.22987 0  0.630935 0.265614 
[...]
<PointData  Vectors="v"> 
	<DataArray  type="Float64"  Name="v"  NumberOfComponents="3" format="ascii">
0.0 0.0 0.0 0.0 0.0 0.0 0.0 0.0 0.0 0.0 0.0 0.0 0.7960680250006967 -0.1870803949282224 0.0 0.842912420300877 0.19921051345138946 0.0 0.8164753761872234 0.08830065922741563 0.0 1.0832746332653524 0.16522025080657043 0.0 0.0 0.0 0.0 0.0 0.0 0.0 0.0 0.0 0.0 0.0 0.0 0.0 0.0 0.0 0.0 0.0 0.0 0.0 0.0 0.0 0.0 0.0 0.0 0.0 0.0 0.0 0.0 0.0 0.0 0.0 0.0 0.0 0.0 0.0 0.0 0.0 0.0 0.0 0.0 0.0 0.0 0.0 0.0 0.0 0.0 0.0 0.0 0.0 0.0 0.0 0.0 0.0 0.0 0.0 0.0 0.0 0.0 0.0 0.0 0.0 0.0 0.0 0.0 0.0 0.0 0.0 0.0 0.0 0.0 0.0 0.0 0.0 0.0 0.0 0.0 0.0 0.0 0.0 0.0 0.0 0.0 0.0 0.0 0.0 0.0 0.0 0.0 0.0 0.0 0.0 0.0 0.0 0.0 0.0 0.0 0.0 0.0 0.0 0.0 0.7650910994326322 0.0007881249019794084 0.0 1.2339431043754832 0.22777643554302549 0.0 1.1318511299837088 -0.04092492279861792 0.0 0.0 0.0 0.0 1.301418322709721 -0.08279700957810131 0.0 1.3152617353262541 0.06184567144023229 0.0 0.0 0.0 0.0 0.0 0.0 0.0 1.0 0.0 0.0 0.0 0.0 0.0 0.0 0.0 0.0 0.0 0.0 0.0 0.8460654367757312 -0.22626770201890448 0.0 1.1517174818645528 -0.3034904418421376 0.0 0.8697877366927699 0.22680242219841412 0.0 1.1736028306283053 0.30094724717795535 0.0 0.43238086356404937 -0.0026646563322913165 0.0 0.1877129962991452 0.024112456714220788 0.0 0.16419289524435454 -0.021946825125959725 0.0 -0.043538507519154404 -0.05685426443717186 0.0 -0.05299520306927852 0.07368813265295864 0.0 0.3377161596098399 -0.2802655044105097 0.0 0.8715459546168846 -0.6713068882492252 0.0 0.6495239462221656 -0.6921827033718341 0.0 1.2399753284474344 -0.6026495029088444 0.0 0.2950144580259975 0.0015786881927739485 0.0 0.33490881192979993 0.27199192583522114 0.0 0.6557689705543907 0.6752182182524065 0.0 1.2293903187693371 0.6023153169148452 0.0 0.3164029979842107 -0.005246131404599468 0.0 1.2860045720394075 0.17588202923274543 0.0 -0.01449458719424331 0.061442055389702585 0.0 1.2707302514572085 -0.17953940997257434 0.0 -0.019268526756703597 -0.04450731606659062 0.0 -0.03485265803374672 -0.01398236896956665 0.0 1.2175578791722474 -0.3979271669471366 0.0 1.1249324284388853 -0.7292015937402613 0.0 0.8764030792007254 0.7808882291180552 0.0 1.2509000695463581 0.3998808168322484 0.0 0.9367164375583952 0.16381718704560283 0.0 -0.0393398556434262 0.08330362952843189 0.0 0.9082131881255329 -0.16063705207148343 0.0 -0.035323225635047764 -0.05522894099800924 0.0 -0.03276082424434907 0.03675444005882308 0.0 1.0689055338827693 0.7313708091182427 0.0 0.45015576422873593 0.5351608582986827 0.0 0.5654200706001772 0.02835376127990929 0.0 0.10152501718539295 0.04788282689169878 0.0 0.5359795647046487 -0.03170495002963415 0.0 0.0714942409290666 -0.046621480254160685 0.0 -0.11446930925451239 -0.008089184776082458 0.0 0.9724698897243866 0.2957288658914579 0.0 1.2575171237786602 0.23301163135513087 0.0 1.315407044963852 0.19042194173402946 0.0 1.2232952748778778 -0.2468419083121741 0.0 1.2866444494358726 -0.20013779192266581 0.0 1.3244395387741974 0.24439954029290303 0.0 1.301055518994458 -0.2490245401215235 0.0 0.44850472597484214 -0.5478389401834616 0.0 0.8054606087281247 -0.13600189216559924 0.0 0.6779958203601636 -0.41713520137644317 0.0 0.8956099856693214 0.5933167116165933 0.0 0.8042665840778503 0.14328674391299906 0.0 0.6869418232485328 0.42058584350267203 0.0 1.2251584445148929 -0.08450569125866425 0.0 0.2251053640060462 0.03239676294102635 0.0 0.19427360872950766 -0.023143923587961687 0.0 -0.08265666986531299 -0.042145610185677904 0.0 1.3119435976949867 0.4217793718948118 0.0 0.9187192185840245 0.05855455969785771 0.0 1.2936765125001346 -0.4348658433609595 0.0 0.8825517290257034 -0.06211914895834135 0.0 1.346189048104389 0.35176915006562587 0.0 1.2779960432951667 0.33683918488550346 0.0 1.3234256491828753 -0.3596920681201183 0.0 1.2579794442282697 -0.3289555359296928 0.0 0.5880037068187443 -0.15875725390751544 0.0 0.8020909209372891 -0.32705302422612936 0.0 1.0373189340987017 0.5966418551157696 0.0 0.5975044109779287 0.1521072999027435 0.0 0.8212910542829104 0.329616610170346 0.0 0.936639468478426 0.014795246156997524 0.0 0.8821810867077626 -0.031550536037641436 0.0 -0.035073926960924436 -0.06781983995190394 0.0 1.3112084106519377 0.11167940428527365 0.0 0.931772709599325 -0.30467016084487325 0.0 1.2905265611456174 -0.12466727261396751 0.0 0.46346321017886655 0.01847892576551365 0.0 0.41673853571338304 -0.017955308703292153 0.0 -0.11841458866902893 -0.07172101326208294 0.0 1.066559691607175 0.31815229291641745 0.0 0.9562992779658904 0.3797027820194811 0.0 1.0754883867619067 0.05537716475897048 0.0 0.9082447219725287 -0.05003151890602075 0.0 1.312390995823139 0.05595010712367884 0.0 1.0306888066745055 -0.31840399128551405 0.0 1.0953276352763632 -0.5573312769561881 0.0 0.9380473059697436 -0.37821464049216175 0.0 1.009538422004044 -0.42394106038726337 0.0 0.9450956446557037 -0.5361002417285232 0.0 0.8727489914186648 -0.39926342193883624 0.0 1.3249535746099224 0.13767849513480715 0.0 1.2968406349992387 -0.1511172796035817 0.0 0.8549234545834759 -0.2278202336590848 0.0 0.8833835712271542 -0.30066580085473155 0.0 0.8573580283130737 -0.29203374334724685 0.0 0.8516124564944636 -0.2441907995801341 0.0 0.85589993416052 -0.24279433059321756 0.0 0.9001554518073324 -0.30729623985667437 0.0 1.3227450626741424 0.21223205657858418 0.0 1.1700096848464454 -0.09905215885259305 0.0 1.3359755412089178 0.2763630880428578 0.0 1.3041390251451614 -0.2138068189897778 0.0 0.0 0.0 0.0 0.0 0.0 0.0 1.3070249810305465 -0.279918032499816 0.0 0.7191123024164747 -0.26456489653448245 0.0 0.8237636447178981 -0.20624370948437604 0.0 0.8734492331755671 -0.10651873167578649 0.0 0.8649069445177794 -0.15872816450983343 0.0 0.9375 0.0 0.0 0.7500000000000001 0.0 0.0 0.7291287814646734 0.2658896384510714 0.0 0.8296532514426365 0.1994057091004619 0.0 0.7499999999999999 0.0 0.0 0.8735013578157903 0.12784892146030083 0.0 0.9305471325478829 0.04385619422525016 0.0 0.8514333984945214 0.04662732280512996 0.0 -0.0890231679295891 -0.06254877576297906 0.0 0.018095142641633692 -0.06919784429377572 0.0 1.1449188359515694 0.5359725404534676 0.0 1.0379444178625779 0.45801123699426394 0.0 0.8857200442158366 0.23962512678359787 0.0 1.275760914769422 0.0598928922636759 0.0 1.2877763948083165 -0.028080193396641164 0.0 0.34885024834417583 -0.007044821414423617 0.0 1.31113580879398 0.012849806912319128 0.0 0.8950648623396631 -0.01660802231296498 0.0 1.2600490310899843 0.02197770139821891 0.0 0.6681313170235049 -0.07684698960540005 0.0 0.6335246050998241 -0.041971975634199445 0.0 0.002958649219924887 -0.03558656189298887 0.0 1.126523151544926 -0.049665384295150494 0.0 0.2846666378197346 -0.04354692971244693 0.0 0.16012859002845517 -0.10467179655424302 0.0 0.3139954963067603 -0.07531297936472492 0.0 0.8446519583577257 -0.12088041923377094 0.0 0.6552782230810489 -0.1035087451031718 0.0 1.26707876433446 -0.06473227108010086 0.0 0.6525120782165046 0.020880791791640037 0.0 1.254184138494205 -0.09050018272527897 0.0 0.08031726701762427 -0.05105351927418009 0.0 1.1469368060412615 0.09762736166432688 0.0 0.8866580145438933 0.17670505564744102 0.0 0.6937731974670516 -0.1556223374358411 0.0 1.0471676203694982 -0.06089740490669961 0.0 1.0156993709550397 -0.18597070033208604 0.0 0.865606169684645 -0.1763447738130451 0.0 0.8779815313691745 -0.022850650769774578 0.0 0.4072690166461398 -0.02092092030806338 0.0 0.22659413853489332 -0.0395644336152194 0.0 1.3023802158106386 -0.01028849866131551 0.0 0.20642258085533827 -0.06670077830035497 0.0 1.3052230160364726 -0.04566709393879818 0.0 0.14742627782886294 -0.062420214737654134 0.0 0.5849396228001382 -0.012213337700115384 0.0 -0.051603664008082285 -0.09656903064440138 0.0 0.6138415366183624 -0.01420940183955196 0.0 0.8868747966284426 0.29168411792591953 0.0 0.891052459861735 0.4055019023404541 0.0 0.8888430148757203 0.25635437858849885 0.0 0.9147932906832736 0.10953809366455342 0.0 0.8689145312669508 0.21549366072006002 0.0 0.91186308144579 0.293860436982862 0.0 0.860324541564187 0.22327459148031642 0.0 0.8032154355470855 0.17331667986294177 0.0 0.8694898133758707 0.15751958313999065 0.0 0.0 0.0 0.0 0.8435692493403874 0.17072688033129857 0.0 0.875012540876895 0.1697991596813554 0.0 1.0917626584108846 -0.009618017378326092 0.0 1.2807411462655396 -0.02219765943535164 0.0 1.0631531165402917 -0.08248138067651639 0.0 0.7013145184947213 -0.14376869140294235 0.0 1.2062790720589855 0.066666437059178 0.0 0.7145153870223416 -0.16343875863871452 0.0 1.1236432237380363 -0.11435850084373035 0.0 1.0936547032349204 -0.008692799792168086 0.0 1.3089935813480484 0.021831116160423932 0.0 0.679491751233027 -0.00943662957564311 0.0 1.2617081343803975 0.004040905589353681 0.0 1.1081385904858438 0.0200728526353313 0.0 -0.0013016079806267566 -0.13256477077924242 0.0 -0.2025387277467844 -0.08792430866677249 0.0 0.9536355945553696 0.3256400045338076 0.0 1.0191617541838482 -0.12330497096163129 0.0 0.5374629221803985 -0.14408909621548474 0.0 0.0 0.0 0.0 1.1822356041187503 -0.033854803837477014 0.0 1.2541573720029089 -0.06697190278007889 0.0 1.2206140070304055 0.03256266899717662 0.0 1.0447332575571475 -0.04877174399725347 0.0 0.4468608168666469 -0.03296815423577975 0.0 1.278854789991926 0.03844492433852597 0.0 1.3032780747988193 0.14601809977969088 0.0 0.030703523574208136 -0.11063044256028068 0.0 -0.16204923592829923 -0.08588493350936885 0.0 -0.1382460739612605 -0.1160039397154598 0.0 -0.16278239455485896 -0.03409064542609442 0.0 1.1524613334835543 0.15110763017311754 0.0 0.7746382701349414 0.1814722981917707 0.0 0.7788745436189268 0.14735880400669074 0.0 0.7865581917535409 0.10380972611019072 0.0 0.6189143146554532 0.10419038576257997 0.0 0.4462036702934542 -0.1259333893288332 0.0 0.045111371916139086 -0.14779993760597832 0.0 0.37753773052650835 -0.14482431564604206 0.0 0.9731516269445658 0.027133793619685844 0.0 0.0 0.0 0.0 0.6443521790508484 -0.012400790049894818 0.0 1.0928124133843957 0.047299159639931074 0.0 -0.23172779349826314 -0.1527520289854319 0.0 1.0814539307687936 0.21185631162561067 0.0 0.9020576674399308 0.11080398731374996 0.0 1.1640611152005738 -0.07944089710418932 0.0 0.25140446296115987 -0.08301162071688313 0.0 0.5564286005963155 -0.009504726129712494 0.0 0.24547219125853123 -0.0898793012083693 0.0 1.3158546506142574 0.10126468270682738 0.0 -0.2128455342445333 -0.1241960688792183 0.0 -0.1433350876402701 -0.1391999578260426 0.0 -0.1678514777293985 -0.1594160297763626 0.0 -0.1471496150218586 -0.1093107805306522 0.0 -0.2190597863289887 -0.1730914858559587 0.0 -0.23270870894859502 -0.1705304743176559 0.0 -0.03539359194476833 -0.126491048329921 0.0 -0.15622013375060925 -0.1654274432782613 0.0 -0.19773181163695439 -0.16300256538373634 0.0 -0.00551186424282059 -0.16542864762823833 0.0 -0.14818347638658308 -0.1402886270227486 0.0 -0.19772238913326243 -0.11284086307314418 0.0 -0.21886703880049288 -0.15363860897658813 0.0 -0.1465347066228505 -0.15162787469540992 0.0 0.0 0.0 0.0 0.9393916481615999 0.22423821914815198 0.0 0.951854354172749 0.04048639386876734 0.0 0.23248447595451668 -0.15785953949341816 0.0 0.3618980799351483 -0.05385077623292727 0.0 0.724934111990846 0.00937785323348108 0.0 1.122041497713883 0.08970724867133786 0.0 1.2790707263090078 0.07811030762289069 0.0 1.194870416320626 -0.05359914810359332 0.0 0.22290086375521073 -0.0823916957467415 0.0 -0.1578591085934824 -0.16703935266829728 0.0 -0.10305127995150945 -0.022703774325197244 0.0 0.0603078077532442 -0.1520980389048901 0.0 0.01937848843758615 -0.10359125770125963 0.0 0.27567442823151694 -0.12356424756067974 0.0 0.5265238363833638 -0.05076404081914315 0.0 0.8858461296510438 -0.0965759349074525 0.0 0.30635822340307356 -0.0855308650145076 0.0 0.5833184901177476 -0.12152838178931304 0.0 0.6516577780888468 -0.0921627271387607 0.0 0.8424818387000124 -0.1242549408912346 0.0 0.15734674131159992 -0.0368055423640408 0.0 1.1424926085482128 -0.06403783396165988 0.0 1.054586711572318 -0.09584581980706672 0.0 1.1955405874310352 -0.08856271267544917 0.0 1.0769800972446737 -0.1115888793228037 0.0 -0.13380797759465515 0.05528812643233892 0.0 0.9871146591769877 -0.0634773989228432 0.0 1.1139544372084662 -0.11571834638201423 0.0 1.1834394594637074 -0.24323319180647487 0.0 -0.059622861937384836 0.13391910648069746 0.0 0.3832172635487167 -0.01501808709229213 0.0 1.218010538070678 -0.07643546013947015 0.0 0.010998798469267707 0.02396395355464595 0.0 -0.11110424764403827 0.005379435449060721 0.0 1.1387907296884205 -0.025901066548693175 0.0 -0.010739602145881794 0.16579380490018708 0.0 -0.12092208319770292 0.06546692816542728 0.0 0.24442763715709256 0.1659882817822258 0.0 -0.05399647579135877 0.10763745377453277 0.0 -0.075029391274805 0.1739087917367284 0.0 0.34013139712067325 0.05668554458497512 0.0 -0.036997073427458546 0.22932330667755071 0.0 0.45919968474795136 0.3283255050145461 0.0 0.13686034338108463 0.1860565628163732 0.0 0.01971406258768912 0.29579446830515865 0.0 0.05873483623467396 0.25322530411020433 0.0 0.3948862855023005 0.2534336192169648 0.0 0.8954931455727465 -0.055230255272554665 0.0 0.7458910901686584 0.24532926953541656 0.0 0.2800319025784456 0.16018800149744664 0.0 0.25429167031397015 -0.16023569374912097 0.0 0.849097744007696 -0.1364052254069729 0.0 0.4299975256738623 -0.05007805056863676 0.0 1.2859455598358773 0.13043879085089358 0.0 1.1537469787704864 0.17225831683728202 0.0 0.8707767677240918 0.003235820094811737 0.0 -0.03388899180808114 -0.1415221310130575 0.0 -0.184254828129204 -0.10263415259973185 0.0 -0.17958643850086048 -0.06865554373280634 0.0 0.10859163934960737 -0.0034049110384666036 0.0 -0.17576890349295424 -0.04471446498068535 0.0 0.22912118828871783 0.03000495111506867 0.0 1.1587710799930235 -0.023650573575730804 0.0 0.5586488779842591 0.010864592998716097 0.0 0.8511904706389546 0.019630140823267743 0.0 0.2945342599169726 0.3047172904743803 0.0 0.04670571860008862 0.23859978283787997 0.0 0.10565838119742993 0.31780052031868433 0.0 0.2556636516373733 0.21161551513558172 0.0 0.04692305082213643 0.3048784159359217 0.0 0.9954817784822704 0.15735710756675583 0.0 0.10186129886161051 0.343531907029425 0.0 0.18920147719247551 0.3458679385553597 0.0 0.1268698940874355 0.35338525047712815 0.0 0.27773897168649914 0.23125278118380957 0.0 0.6245227620017374 0.054152878336367824 0.0 0.6308217354297648 0.03658724934111127 0.0 0.46364156603270307 0.08886974271150158 0.0 0.7345054163745134 -0.023152476527450967 0.0 0.1842422574052409 0.12141877946075261 0.0 0.8530862825933887 0.03056562753763117 0.0 1.0827827814122537 -0.012353528036591432 0.0 0.9950589003301521 -0.018205815213003157 0.0 0.9797186139210735 -0.03940013787857901 0.0 0.5895384959116154 0.08686812645343038 0.0 0.5613657288576346 0.10806731302386685 0.0 0.5762962169656191 0.10052877110021653 0.0 0.47793427291750035 0.14549218551816753 0.0 0.2596648858815844 0.23707747255020567 0.0 0.9143113027110631 -0.005540163845817721 0.0 0.48187377276465215 -0.00974233742075387 0.0 0.8795970250902192 0.07929468350618621 0.0 0.24681963160021833 -0.03826341182846838 0.0 0.46838069795201737 0.0737766855630851 0.0 0.001409174285405251 -0.08403534594083635 0.0 1.243336279484832 0.010934601305641233 0.0 1.0858131893885663 0.0964929114031495 0.0 1.1787404576229217 -0.0632599041848604 0.0 1.1237305911957722 -0.04170131347952901 0.0 0.35676737041139406 0.19696340884685493 0.0 0.6803347617145639 0.014513249346978169 0.0 0.9216382282548075 0.17848859217897942 0.0 0.397924213616358 0.12979769310971753 0.0 1.2147303433372358 0.042633832414509035 0.0 1.1559897381938224 -0.06377252032621201 0.0 0.7903102315934175 0.27075455454009073 0.0 1.1389757094212134 -0.0347014052262235 0.0 0.911741344461366 0.13655813894136204 0.0 1.280616025335142 0.19449105066672587 0.0 0.7138017277573955 0.17975525979211027 0.0 1.0645515350853727 0.2652394868173493 0.0 1.2431076974702027 0.07689014328953611 0.0 1.0394208086416232 -0.05196860810120801 0.0 1.1515000234202473 -0.035746283950395724 0.0 1.1271718228251422 0.20297551167256625 0.0 1.2328620532949905 0.2546487020784018 0.0 1.2684805474533962 0.21135718691525485 0.0 1.1141805646381402 0.2352978034491986 0.0 1.1516713572061457 0.28288544957512063 0.0 1.1961204732059725 0.28462748209387967 0.0 1.0397034907948517 0.3155873246939548 0.0 1.1351887105764409 -0.05878183550150659 0.0 0.0 0.0 0.0 1.169458262151792 0.14600963746571433 0.0 1.095679013885189 0.3089253265315117 0.0 0.7603968159683325 0.3100679244596529 0.0 1.1668442306126185 0.18266590921446893 0.0 1.126969008272807 0.3168751325859794 0.0 1.1793116663619763 0.24065275473825049 0.0 0.9754068014855892 0.336219815678986 0.0 1.0483045234729855 0.20197193386902645 0.0 0.8822489643815012 0.31897374362146336 0.0 0.6902748663971222 0.3409441027389576 0.0 1.097054160817151 0.2616501152106866 0.0 0.9767078404582011 0.33099366133589536 0.0 1.0352990461736575 0.23501804727938005 0.0 1.0138205364936819 0.29087571700867826 0.0 0.9231151759596238 0.24624979889118756 0.0 1.2265833369023778 0.26470523525472883 0.0 1.186930521293126 0.28543065028862613 0.0 1.1175870972845632 0.19985678367496837 0.0 0.5779790662836667 0.31021615889440435 0.0 0.7959698978401397 0.09449580721129525 0.0 1.0338668195165266 0.20092431447828288 0.0 1.007015521309345 0.1877606499890544 0.0 0.9160931135254604 0.039624138782801674 0.0 0.9454691782718574 0.10071225137134414 0.0 1.0548287101450655 0.19342667966693494 0.0 0.9193111318690124 0.12926307439957854 0.0 0.8868119460139665 0.1267161600597347 0.0 0.8694668282971888 0.08198454489837503 0.0 1.005047781668934 0.1712256157146942 0.0 0.6978483925580412 0.0919808812837518 0.0 0.9356133379625662 0.08991245834699048 0.0 0.8760368102251872 0.03615318713468503 0.0 0.959180710921639 0.16022131994667 0.0 0.8659646566729993 0.04238643124081607 0.0 0.0 0.0 0.0 0.6490618929249611 -0.0038755572025817066 0.0 1.096252217623574 0.4066602977149532 0.0 1.1895050781041718 0.380953006853147 0.0 1.0950903362819582 -0.40278745898424595 0.0 0.8570781938632712 -0.2071960225522266 0.0 0.9686880369998656 -0.22597731732369258 0.0 0.8933486560883003 -0.08072937188778657 0.0 1.2573528506735894 -0.02730152672336589 0.0 1.151889320558986 -0.03727611618422093 0.0 1.2406489307149189 -0.06425819788315319 0.0 1.1823904088237078 -0.04321438682365918 0.0 1.227795115240296 -0.0177020152768792 0.0 -0.14415294563032893 -0.04130814858610524 0.0 -0.1450398278317366 -0.04558837898883473 0.0 -0.08710354842479102 -0.07282463527093153 0.0 -0.08276255313565191 0.0029231098045058614 0.0 0.08852767911944233 0.0014149792663491212 0.0 -0.12288386714588533 0.006106460051774529 0.0 -0.03546847532161207 0.04885387857979868 0.0 0.11903291598696668 0.032767217150476854 0.0 -0.027878137331718837 0.07449641116838437 0.0 -0.08637697148875632 0.04115362422231552 0.0 0.982812591724685 0.10756033077801931 0.0 0.09826823153973091 0.059710299670734567 0.0 1.1878870802266448 -0.042069961219235154 0.0 1.0892450515719745 -0.0112907351658797 0.0 0.9403475759174772 0.011510705115947373 0.0 1.1099992436299992 -0.031083933852511493 0.0 1.2415243606777508 -0.17661633705914098 0.0 0.9846023073153172 -0.013383713245794526 0.0 1.2421423297808942 -0.12701304675853126 0.0 1.160415840174026 -0.0905926130226511 0.0 1.1661874229176856 -0.06794281563231705 0.0 1.0865911727061563 -0.12881453865380454 0.0 1.066600825116184 -0.08479674831874603 0.0 0.8533461478579448 -0.018062325674654982 0.0 1.2187001866584242 -0.1569617133903797 0.0 1.224886847170931 -0.21909031831561318 0.0 1.2291874216988048 -0.21567690740353465 0.0 1.0014468951682032 -0.11976493560971758 0.0 1.2493278177425964 -0.2087915528157488 0.0 1.03293449972299 -0.1788948357720802 0.0 1.2369636240214503 -0.2553155479798957 0.0 1.1920589621096542 -0.24491301311337912 0.0 1.0728637786801918 -0.28066041105180933 0.0 1.1468814514395413 -0.31894076741881305 0.0 1.1021104441720198 -0.24912017810136952 0.0 0.7234551224733222 -0.1010219321710919 0.0 1.1774948239652536 -0.29235824260385057 0.0 0.9403429975511159 -0.20520357022101351 0.0 1.0678779809773853 -0.2133923158180959 0.0 0.8018668063973053 -0.2298805585693938 0