<?xml version="1.0"?>
<VTKFile type="UnstructuredGrid"  version="0.1"  >
<UnstructuredGrid>
<Piece  NumberOfPoints="1289" NumberOfCells="2413">
<Points>
<DataArray  type="Float64"  NumberOfComponents="3"  format="ascii">0 0 0  0 0.41 0  2.2 0.41 0  2.2 0 0  0.1 0.1 0  0.1 0.3 0  0.8 0.3 0  0.8 0.1 0  0.25 0.2 0  0.248976 0.210065 0  0.245948 0.219718 0  0.241038 0.228563 0  0.234448 0.23624 0  0.226448 0.242432 0  0.217365 0.246888 0  0.207571 0.249423 0  0.197468 0.249936 0  0.187467 0.248404 0  0.17798 0.24489 0  0.169395 0.239539 0  0.162062 0.232569 0  0.156283 0.224265 0  0.152293 0.214968 0  0.150257 0.205058 0  0.150257 0.194942 0  0.152293 0.185032 0  0.156283 0.175735 0  0.162062 0.167431 0  0.169395 0.160461 0  0.17798 0.15511 0  0.187467 0.151596 0  0.197468 0.150064 0  0.207571 0.150577 0  0.217365 0.153112 0  0.226448 0.157568 0  0.234448 0.16376 0  0.241038 0.171437 0  0.245948 0.180282 0  0.248976 0.189935 0  1.1 0 0  1.1 0.41 0  0.1 0.2 0  0.45 0.1 0  0.45 0.3 0  0.55 0 0  0.275 0.1 0  0.275 0.3 0  0.275 0 0  0.55 0.41 0  0 0.205 0  0.825 0 0  0.825 0.41 0  0.275 0.41 0  0.1 0.15 0  0.1875 0.1 0  0.1 0.25 0  0.1875 0.3 0  0.132322 0.2 0  0.241426 0.253518 0  0.241426 0.146482 0  0.264574 0.17974 0  0.264574 0.22026 0  0.138434 0.187348 0  0.153372 0.150948 0  0.148413 0.164094 0  0.176495 0.136535 0  0.22768 0.143571 0  0.138434 0.212652 0  0.148413 0.235906 0  0.176495 0.263465 0  0.22768 0.256429 0  0.23125 0.3 0  0.24769 0.24094 0  0.23125 0.1 0  0.24769 0.15906 0  0.26253 0.193641 0  0.190482 0.137872 0  0.166753 0.146661 0  0.157737 0.244461 0  0.190482 0.262128 0  0.203107 0.261264 0  0.253635 0.22977 0  0.203107 0.138736 0  0.253635 0.17023 0  0.261028 0.206206 0  0.167707 0.251809 0  0.143629 0.224191 0  0.215302 0.2591 0  0.270465 0.245894 0  0.215302 0.1409 0  0.270465 0.154106 0  0.284052 0.202587 0  0.14375 0.3 0  0.209375 0.3 0  0.225966 0.278501 0  0.209375 0.1 0  0.225966 0.121499 0  0.211613 0.273759 0  0.211613 0.126241 0  0.143629 0.175809 0  0.1 0.175 0  0.133484 0.164832 0  0.144491 0.249539 0  0.1 0.225 0  0.133484 0.235168 0  0.3625 0.3 0  0.25691 0.253381 0  0.25691 0.146619 0  0.277205 0.188698 0  0.184724 0.275712 0  0.237372 0.268285 0  0.184724 0.124288 0  0.237372 0.131715 0  0.197578 0.273149 0  0.193656 0.286994 0  0.197578 0.126851 0  0.193656 0.113006 0  0.122953 0.187671 0  0.118362 0.153758 0  0.155372 0.258107 0  0.122953 0.212329 0  0.118362 0.246242 0  0.276394 0.27264 0  0.276394 0.12736 0  0.280965 0.170013 0  0.253125 0.3 0  0.14375 0.1 0  0.253125 0.1 0  0.269489 0.26014 0  0.269489 0.13986 0  0.303639 0.184297 0  0.165625 0.3 0  0.134742 0.273113 0  0.257831 0.274737 0  0.255279 0.128499 0  0.3625 0.1 0  0.165625 0.1 0  0.162031 0.132368 0  0.134955 0.126405 0  0.149334 0.125568 0  0.142936 0.139597 0  0.12695 0.140259 0  0.242514 0.285501 0  0.242514 0.114499 0  0.1 0.125 0  0.117483 0.12555 0  0.11154 0.139776 0  0.121875 0.1 0  0.109143 0.1125 0  0.126805 0.114 0  0.220313 0.29129 0  0.351562 0.287369 0  0.207222 0.2866 0  0.220312 0.10871 0  0.1375 0 0  0.20625 0 0  0.207222 0.1134 0  0.11722 0.17118 0  0.1 0.1625 0  0.0778409 0.16875 0  0.0862762 0.15625 0  0 0.15375 0  0 0.1025 0  0.11722 0.22882 0  0.1 0.2375 0  0 0.3075 0  0.0862762 0.23125 0  0.0598995 0.222547 0  0.0860223 0.2125 0  0.289584 0.181469 0  0.300267 0.16446 0  0.163832 0.269071 0  0.149597 0.273325 0  0.1 0.275 0  0.268498 0.285953 0  0.31875 0.3 0  0.294154 0.254672 0  0.296875 0.3 0  0.293558 0.271845 0  0.285095 0.286799 0  0.324298 0.264316 0  0.307866 0.263745 0  0.317093 0.234901 0  0.315485 0.281219 0  0.316547 0.250625 0  0.344693 0.243731 0  0.331592 0.251147 0  0.35129 0.270663 0  0.338689 0.263683 0  0.340625 0.3 0  0.249849 0.264383 0  0.265097 0.11422 0  0.284688 0.156136 0  0.242188 0.324017 0  0.0856613 0.2625 0  0.132812 0.0612217 0  0.264062 0.0612217 0  0.198437 0.07598340000000001 0  0.0860223 0.1375 0  0.0794526 0.191089 0  0.285228 0.140397 0  0.298655 0.148737 0  0.31875 0.1 0  0.327335 0.15374 0  0.296875 0.1 0  0.312289 0.155283 0  0.313348 0.135607 0  0.321802 0.173916 0  0.298433 0.134116 0  0.112124 0.2625 0  0.127526 0.259083 0  0.121875 0.3 0  0.0682687 0.241503 0  0.1 0.2875 0  0.117762 0.28125 0  0.107813 0.3 0  0.103906 0.313849 0  0.0778409 0.28125 0  0.1375 0.41 0  0.0862762 0.29375 0  0.08886860000000001 0.24375 0  0.307812 0.338778 0  0.307812 0.292227 0  0.33216 0.279164 0  0.387888 0.266414 0  0.264063 0.31948 0  0.110937 0.07598340000000001 0  0.242188 0.07598340000000001 0  0.319914 0.11839 0  0.340625 0.1 0  0.334448 0.133793 0  0.329687 0.108539 0  0.346259 0.118491 0  0.360334 0.173636 0  0.327539 0.205033 0  0.132812 0.288712 0  0.362436 0.278836 0  0.368105 0.259418 0  0.4125 0.41 0  0.329687 0.324017 0  0.329687 0.292306 0  0.285938 0.318952 0  0.417187 0.338778 0  0.324481 0.14148 0  0.351562 0.106771 0  0.40625 0.1 0  0.341028 0.168342 0  0.319221 0.190479 0  0.335292 0.184501 0  0.305563 0.20794 0  0.220313 0.31948 0  0.132812 0.332772 0  0.0865876 0.311259 0  0.0598995 0.302453 0  0.0906541 0.343255 0  0.353543 0.255837 0  0.36574 0.237633 0  0.405007 0.254279 0  0.275795 0.352123 0  0.4125 0 0  0.35493 0.137394 0  0.366563 0.120618 0  0.35917 0.205246 0  0.198438 0.318952 0  0.0626109 0.263892 0  0.40625 0.3 0  0.354809 0.155936 0  0.386512 0.146872 0  0.373101 0.159939 0  0.384375 0.1 0  0.343394 0.19929 0  0.350682 0.185683 0  0.368101 0.189748 0  0.344016 0.221511 0  0.391108 0.213329 0  0.376279 0.204783 0  0.398843 0.182768 0  0.375804 0.222746 0  0.390665 0.196958 0  0.394004 0.23518 0  0.359883 0.222828 0  0.419908 0.204359 0  0.404243 0.204783 0  0.412615 0.224526 0  0.20625 0.41 0  0.165625 0.325257 0  0.0347982 0.244954 0  0.379558 0.247154 0  0.34165 0.147603 0  0.372264 0.136992 0  0.388988 0.121989 0  0.373437 0.108554 0  0.351562 0.31948 0  0.391367 0.16527 0  0.399572 0.223324 0  0.452011 0.227371 0  0.40877 0.239392 0  0.431491 0.237337 0  0.421224 0.250459 0  0.449619 0.262098 0  0.418865 0.276779 0  0.437063 0.252274 0  0.415673 0.263227 0  0.430988 0.266772 0  0.402767 0.273419 0  0.452967 0.244883 0  0.428125 0.3 0  0.408502 0.286186 0  0.384375 0.3 0  0.392267 0.285807 0  0.465927 0.219339 0  0.43489 0.283846 0  0.376424 0.286289 0  0.625 0.3 0  0.473533 0.205186 0  0.461713 0.255517 0  0.5375 0.3 0  0.465725 0.235405 0  0.44631 0.201425 0  0.471875 0.3 0  0.494307 0.227729 0  0.459448 0.206736 0  0.462294 0.180792 0  0.478933 0.227536 0  0.486793 0.21381 0  0.486322 0.251373 0  0.50065 0.215318 0  0.54005 0.175389 0  0.474633 0.189893 0  0.512916 0.208697 0  0.49531 0.199967 0  0.475889 0.175275 0  0.625 0.1 0  0.459311 0.153933 0  0.513645 0.242704 0  0.392892 0.248539 0  0.374815 0.271913 0  0.365974 0.14871 0  0.395312 0.109184 0  0.417061 0.123981 0  0.483196 0.277003 0  0.381967 0.179632 0  0.429898 0.219374 0  0.433473 0.206165 0  0.43149 0.181038 0  0.444208 0.215487 0  0.472985 0.247309 0  0.49375 0.3 0  0.475579 0.262714 0  0.49916 0.274293 0  0.501175 0.184809 0  0.514164 0.225681 0  0.543648 0.214977 0  0.5341630000000001 0.23481 0  0.527396 0.216171 0  0.5375 0.1 0  0.534548 0.202315 0  0.561545 0.192513 0  0.5494289999999999 0.201221 0  0.570923 0.218346 0  0.412582 0.149833 0  0.489327 0.264745 0  0.502439 0.254775 0  0.462391 0.271166 0  0.496775 0.241732 0  0.5294410000000001 0.268606 0  0.482812 0.291099 0  0.46879 0.285038 0  0.452663 0.284065 0  0.51789 0.257882 0  0.53408 0.252026 0  0.560142 0.243543 0  0.545708 0.243474 0  0.547532 0.229019 0  0.55282 0.265323 0  0.398971 0.153424 0  0.400349 0.135684 0  0.410135 0.168145 0  0.428823 0.161323 0  0.415266 0.183779 0  0.329687 0.0810483 0  0.395312 0.0612217 0  0.373437 0.318952 0  0.439062 0.324017 0  0.561816 0.229354 0  0.585029 0.239287 0  0.431827 0.139854 0  0.446796 0.168929 0  0.351562 0.07598340000000001 0  0.395313 0.318944 0  0.54337 0.150762 0  0.460937 0.31948 0  0.418412 0.137529 0  0.428125 0.1 0  0.442783 0.152332 0  0.450742 0.134294 0  0.373437 0.0805201 0  0.384383 0.342558 0  0.482812 0.318952 0  0.429239 0.127457 0  0.444274 0.117405 0  0.426548 0.113815 0  0.49375 0.1 0  0.488954 0.113984 0  0.457973 0.121842 0  0.471621 0.137346 0  0.515625 0.325257 0  0.48125 0.41 0  0.417187 0.07598340000000001 0  0.496363 0.126778 0  0.479043 0.155715 0  0.439062 0.0805201 0  0.481795 0.126919 0  0.471875 0.1 0  0.489227 0.142159 0  0.515625 0.1 0  0.520062 0.147117 0  0.501244 0.161791 0  0.505431 0.112984 0  0.505344 0.14029 0  0.526563 0.119081 0  0.5181750000000001 0.131908 0  0.539868 0.136937 0  0.460937 0.108383 0  0.474242 0.114415 0  0.460937 0.0810483 0  0.487841 0.167168 0  0.526563 0.0612217 0  0.526563 0.106406 0  0.537619 0.112743 0  0.58125 0.1 0  0.559375 0.1 0  0.482812 0.08105569999999999 0  0.471883 0.0587655 0  0.570312 0.129396 0  0.548437 0.07598340000000001 0  0.504687 0.08105569999999999 0  0.49375 0.0470127 0  0.570312 0.112663 0  0.592798 0.12103 0  0.553986 0.12103 0  0.570312 0.0805201 0  0.48125 0 0  0.114787 0.2 0  0.160769 0.284765 0  0.175816 0.288361 0  0.162602 0.116048 0  0.154687 0.07598340000000001 0  0.176562 0.0805201 0  0.0598995 0.147547 0  0.307812 0.109924 0  0.291279 0.117157 0  0.278491 0.112989 0  0.285937 0.07598340000000001 0  0.307812 0.0805201 0  0.296928 0.196743 0  0.318141 0.218507 0  0.330208 0.227509 0  0.301397 0.225668 0  0.302706 0.241401 0  0.292574 0.21424 0  0.282762 0.230935 0  0.284351 0.244775 0  0.269553 0.23261 0  0.278572 0.217242 0  0.226924 0.342606 0  0.446928 0.185396 0  0.515625 0.3 0  0.504687 0.288879 0  0.515256 0.276534 0  0.529479 0.285328 0  0.58125 0.3 0  0.541969 0.272936 0  0.559375 0.3 0  0.556796 0.282529 0  0.543473 0.287206 0  0.581429 0.267774 0  0.566728 0.271171 0  0.570869 0.255585 0  0.577404 0.283865 0  0.603125 0.3 0  0.597531 0.28035 0  0.570312 0.338778 0  0.592188 0.292492 0  0.603513 0.256094 0  0.614063 0.286265 0  0.610329 0.27064 0  0.632708 0.251285 0  0.657223 0.261594 0  0.618789 0.257807 0  0.614188 0.22987 0  0.630935 0.265614 
[...]
<PointData  Vectors="v"> 
	<DataArray  type="Float64"  Name="v"  NumberOfComponents="3" format="ascii">
0.0 0.0 0.0 0.0 0.0 0.0 0.0 0.0 0.0 0.0 0.0 0.0 0.8012047439234523 -0.19425336583129188 0.0 0.8377035660873257 0.19094594273085552 0.0 0.7999618718582845 0.09819091927562897 0.0 0.7719347306518649 0.008984373967081558 0.0 0.0 0.0 0.0 0.0 0.0 0.0 0.0 0.0 0.0 0.0 0.0 0.0 0.0 0.0 0.0 0.0 0.0 0.0 0.0 0.0 0.0 0.0 0.0 0.0 0.0 0.0 0.0 0.0 0.0 0.0 0.0 0.0 0.0 0.0 0.0 0.0 0.0 0.0 0.0 0.0 0.0 0.0 0.0 0.0 0.0 0.0 0.0 0.0 0.0 0.0 0.0 0.0 0.0 0.0 0.0 0.0 0.0 0.0 0.0 0.0 0.0 0.0 0.0 0.0 0.0 0.0 0.0 0.0 0.0 0.0 0.0 0.0 0.0 0.0 0.0 0.0 0.0 0.0 0.0 0.0 0.0 0.0 0.0 0.0 0.0 0.0 0.0 0.0 0.0 0.0 0.0 0.0 0.0 0.0 0.0 0.0 0.0 0.0 0.0 0.7652397072818979 -0.015480783314349548 0.0 1.0382887543571382 0.13985873234660298 0.0 1.3073695392799103 -0.1406380880838432 0.0 0.0 0.0 0.0 1.3180208994462543 -0.04921278666815179 0.0 1.2936588395718143 0.07986025202823838 0.0 0.0 0.0 0.0 0.0 0.0 0.0 1.0 0.0 0.0 0.0 0.0 0.0 0.0 0.0 0.0 0.0 0.0 0.0 0.8511551635047844 -0.2394558940437911 0.0 1.1669882042962807 -0.29965779506233525 0.0 0.8652119744090058 0.21331597031530455 0.0 1.1597914956105453 0.3003681595705679 0.0 0.43231637418459634 -0.021926438967579606 0.0 0.17837877424948703 0.016891356170168088 0.0 0.18482118045393026 -0.02488960894605369 0.0 -0.04020384290336267 -0.1317480052758843 0.0 -0.051379955621387 -0.0033664278827376186 0.0 0.34162540026860794 -0.3015239258744605 0.0 0.8852384937287976 -0.6854900020511813 0.0 0.6610007970688274 -0.7109015151468187 0.0 1.2609949631826174 -0.6096739859916526 0.0 0.3219171994650614 0.005258367968822497 0.0 0.33113405138788626 0.25082960274494465 0.0 0.645563896631847 0.6568702366641745 0.0 1.2128415459018589 0.5944647411934986 0.0 0.3030301412777571 -0.005364691327738918 0.0 1.2712986880578643 0.18302523405627227 0.0 -0.015569763064578308 0.03548663356587063 0.0 1.2861430666161071 -0.16265165489629219 0.0 -0.014584261472725768 -0.06581017959626846 0.0 -0.035791578972689524 -0.10231034643806661 0.0 1.2500156149990789 -0.40385257298984534 0.0 1.1464053093892983 -0.7425247291562282 0.0 0.8621816114973132 0.7647882465081723 0.0 1.227677480758684 0.39433792332164347 0.0 0.9139999055700934 0.16170386459496433 0.0 -0.034642966470214524 0.03144217392721625 0.0 0.9443715237740696 -0.16209363870182722 0.0 -0.0387705426957623 -0.10143313876229991 0.0 -0.028693473903452938 -0.0517313721554191 0.0 1.0525959265822848 0.7187298316361544 0.0 0.44152237899792246 0.5144465701721748 0.0 0.5467186766115701 0.028439720426950244 0.0 0.06597542742538841 0.004077811647009696 0.0 0.5690957537770683 -0.02951034727719199 0.0 0.1129985573256815 -0.08700827116626263 0.0 -0.11424840108928082 -0.076285876814347 0.0 0.9625599437980703 0.2893375521288053 0.0 1.2429044820098294 0.23703918919006933 0.0 1.2918209837134826 0.19413761201882745 0.0 1.2389694246338872 -0.2364096103790589 0.0 1.3193900425296445 -0.18886718993886287 0.0 1.3011540216537085 0.24623679588323785 0.0 1.3340605367273777 -0.24184423819381823 0.0 0.457847465694817 -0.5691213332518106 0.0 0.8085810011060283 -0.15187067335544183 0.0 0.6861487220490778 -0.43552606205351835 0.0 0.8839220398414521 0.5783361654276427 0.0 0.801396468200489 0.12736790964161154 0.0 0.6791988645536106 0.4017564508219059 0.0 1.2456860079611343 -0.011347885261483155 0.0 0.20169938941914262 0.009644119220114834 0.0 0.23209981731059914 -0.037883126491197266 0.0 -0.07584767993342409 -0.11839499684173056 0.0 1.2943789980610618 0.41944154055532806 0.0 0.8859222657042968 0.058010800596122875 0.0 1.315214553362134 -0.4340216827246385 0.0 0.9365065464313718 -0.0563242303752043 0.0 1.3266658217636729 0.351910009534701 0.0 1.2621535559073582 0.3368442148994351 0.0 1.3491124361858686 -0.35527687234951516 0.0 1.276865327695906 -0.323615119066273 0.0 0.5914990753702736 -0.1781331916985628 0.0 0.8090366994077309 -0.3422300712379594 0.0 1.0229929961870503 0.584931175623323 0.0 0.5944904187542728 0.13271246337125467 0.0 0.8149767086365689 0.31406454033384906 0.0 0.8723904128208791 0.011353919845875143 0.0 0.9752966411582861 -0.020461093205420746 0.0 -0.0020652827924656602 -0.12617954167169476 0.0 1.294350531957851 0.12313110352887825 0.0 0.9422826867523918 -0.30966657671358333 0.0 1.3056755426415831 -0.10033785413235174 0.0 0.4166448276920012 -0.004227752758486747 0.0 0.49055981165161916 -0.028139946723424913 0.0 -0.09590138746700655 -0.10369895582511152 0.0 1.0544202285756576 0.3142757189938278 0.0 0.9465942037630104 0.3690683129884069 0.0 1.030655337834257 0.05386736042031669 0.0 0.9742120111231041 -0.04248423796871332 0.0 1.2646852866912497 0.15146114239019667 0.0 1.0439752600610168 -0.31946360303422433 0.0 1.112259381862031 -0.5653806040127713 0.0 0.9490741629360039 -0.38769683537721117 0.0 1.023221427516083 -0.43139188030140396 0.0 0.9581831110127568 -0.5486962611974263 0.0 0.8820219090454561 -0.41227159083246845 0.0 1.301433380122844 0.14403824267902873 0.0 1.3259667024920312 -0.13345635063724676 0.0 0.8605560299345074 -0.2380189338792349 0.0 0.8915053792544207 -0.31087463660572656 0.0 0.864384791712671 -0.30425217352054434 0.0 0.8595933327936578 -0.25069404273247115 0.0 0.8627563490190411 -0.25127446836345874 0.0 0.9092936167943719 -0.3154574770353451 0.0 1.306767069538801 0.21792851407768862 0.0 1.110720032404843 -0.01267139861625857 0.0 1.3190890056696625 0.2791373466931194 0.0 1.3226286281915003 -0.1991478510902917 0.0 0.0 0.0 0.0 0.0 0.0 0.0 1.3270661083202056 -0.27031794760788247 0.0 0.7239203609232725 -0.28179422632318735 0.0 0.8281078119304786 -0.22064584692205302 0.0 0.8753830551212795 -0.11905505051664722 0.0 0.868149265496852 -0.17121331535915982 0.0 0.9375 0.0 0.0 0.7500000000000001 0.0 0.0 0.7248949430712469 0.24854190488364836 0.0 0.8257758932197409 0.1846540575950074 0.0 0.7499999999999999 0.0 0.0 0.8711373981580471 0.11403426575821239 0.0 0.9296464234288998 0.03389160570829776 0.0 0.8507528923786185 0.03219522569709516 0.0 -0.06865693288165627 -0.12072875938079825 0.0 0.07775098276685741 -0.10047880425092313 0.0 1.130084653161183 0.5274164888336905 0.0 1.025718389652612 0.4483104558021057 0.0 0.8805833374147746 0.22855790591920574 0.0 1.2367476221785663 0.06877689835036038 0.0 1.2649822031180293 0.01828336617578403 0.0 0.2624175512987049 -0.03178048415101001 0.0 1.2857013740634196 0.04286840493792822 0.0 0.8023634429937235 -0.0128586362557984 0.0 1.2093777892991227 0.037565817023815326 0.0 0.5241125662604872 -0.03603618175460057 0.0 0.5136182639480207 -0.03436031081267454 0.0 -0.04491467464563516 -0.02638153498395414 0.0 1.0297844848135809 -0.011004834786209644 0.0 0.1788342134187469 -0.034009167784036384 0.0 0.08742698726800152 -0.0008774445087162123 0.0 0.19936604915912243 -0.026124358146947236 0.0 0.7025043294131698 -0.01840018724196279 0.0 0.5038177140227239 -0.027213827554323812 0.0 1.2547079350542183 -0.0017667840187072163 0.0 0.6189254761728007 0.01555206566269937 0.0 1.2986645531452026 -0.06978825705814545 0.0 0.14849789092132173 -0.09028600419805748 0.0 1.1361694576677677 0.10806207121985853 0.0 0.8832040838097285 0.16549890656959343 0.0 0.7010792862367985 -0.15801623756739522 0.0 1.0436192833692588 -0.03946922205614044 0.0 1.0261647493511317 -0.17899483180298922 0.0 0.8694988555273403 -0.1868140819934227 0.0 0.8784804147436117 -0.03628038915001599 0.0 0.5095487165046781 -0.029862649139634323 0.0 0.3341678059077418 -0.049577027339927 0.0 1.3142905345328861 0.06013605268166539 0.0 0.3353260797816638 -0.015254462050840151 0.0 1.3255776296519133 0.0019189353600902685 0.0 0.2515251262533966 -0.05473421655878802 0.0 0.7530167587328173 0.02799471486916928 0.0 -0.002920692918465498 -0.07019098031290238 0.0 0.7513505352787992 0.0031216613532656545 0.0 0.8803094079315871 0.2791775091701421 0.0 0.8827102740378003 0.39167977995760933 0.0 0.8815294789981187 0.24831792571388117 0.0 0.9130537490298045 0.09866728135100979 0.0 0.8638266934081207 0.20630298838979255 0.0 0.9044966476597209 0.2834066567313259 0.0 0.854303330605757 0.2148867195317131 0.0 0.7978526520797471 0.1667298447770198 0.0 0.8661108352570209 0.14858321656447393 0.0 0.0 0.0 0.0 0.8397278254386558 0.16238485873914751 0.0 0.8718702961550644 0.15686569652673021 0.0 1.0978346990851509 0.015752886461051788 0.0 1.231313836196579 0.014841458179046448 0.0 0.9516321962182815 -0.019722016397828283 0.0 0.6479627015003089 0.020471909123054056 0.0 1.1952571613316085 0.08214564860966984 0.0 0.720093477917889 -0.1682567177082371 0.0 1.1299509542433182 -0.09600107971528746 0.0 1.2101511142860015 0.06204174112554743 0.0 1.3021039600624906 0.10979942652873229 0.0 0.8759554605004405 0.08877466061801745 0.0 1.307410205269213 0.09288326926962544 0.0 1.218377394852399 0.13812948960429045 0.0 0.047131037711588886 0.06938545050181417 0.0 -0.20736448105652341 -0.04143616129299642 0.0 0.9444961609703482 0.31682883076246665 0.0 0.9281025483401835 -0.01575504408874474 0.0 0.4298299513266488 0.014523130477703901 0.0 0.0 0.0 0.0 1.1986732335112562 0.006970684401186372 0.0 1.2057995475008496 -0.0031603710212598076 0.0 1.2109749668408176 0.05539716845432805 0.0 1.120703866128084 -0.07415877766596082 0.0 0.6200346415708664 0.024248822860179 0.0 1.2884616462255614 0.1479302040656478 0.0 1.154593399063982 0.190660233371034 0.0 0.10292467987243474 -0.004157681445933829 0.0 -0.15135116560830442 -0.07527218671152733 0.0 -0.11431002982554163 -0.04135003040252394 0.0 -0.16810500245503024 -0.06383573295319836 0.0 1.1400288171609763 0.15739401048804744 0.0 0.7675966001044549 0.1770623157671863 0.0 0.7752339320268222 0.14061670467262088 0.0 0.7846468696862569 0.0975984780589183 0.0 0.6151116303330675 0.09974955749649932 0.0 0.3236044896571468 -0.0011264795698045075 0.0 0.02442854888475983 0.0627632588880656 0.0 0.44451314722348084 0.08414908221610047 0.0 0.9725502755148424 0.04107913252453551 0.0 0.0 0.0 0.0 0.8429872933348758 0.14622735579602936 0.0 1.1816213792463826 0.1972095884658652 0.0 -0.23581038185457617 0.054971108235588505 0.0 1.069588114013924 0.21401355320817625 0.0 0.9002077054662992 0.10207118007553342 0.0 1.2752002428414273 -0.05093806834374364 0.0 0.38323972690306757 0.08200917792349509 0.0 0.6855133755476867 0.24157366433275665 0.0 0.34584344763897346 0.15524611827417978 0.0 1.2173960981759107 0.1819950612763197 0.0 -0.21672402807020624 -0.00734707955080579 0.0 -0.12444614524143062 0.012674766946249404 0.0 -0.1594680668207421 0.09092482560429285 0.0 -0.1655609565993876 0.010844052368753547 0.0 -0.2048167071232399 0.18296305362797785 0.0 -0.23738668926210907 0.12683867730361642 0.0 -0.04973840570825599 0.2467981913828035 0.0 -0.14761988296979697 0.11477991403181433 0.0 -0.20469695295940496 0.19615346660892585 0.0 0.053037281139928394 0.14245257716630153 0.0 -0.15953866585270376 0.05719934542187222 0.0 -0.1918831059591208 0.30991208654685387 0.0 -0.2162435853037908 0.2565446096226594 0.0 -0.043622058193908866 0.21923489883012037 0.0 0.0 0.0 0.0 0.9290445165910038 0.22199561914502772 0.0 0.9515955145778398 0.03476475644992331 0.0 0.21290222118812405 0.06896718560434335 0.0 0.5297420932486735 0.05646989178408137 0.0 0.8902345945182916 0.20991286857718824 0.0 1.1387677955676778 0.24402376782264196 0.0 1.248668647848573 0.1957770910042725 0.0 1.2286204314228604 -0.006139139216439109 0.0 0.26973184505119985 0.23204156826605365 0.0 -0.09822568158328918 0.19181798828907942 0.0 0.206225678437607 0.1856933082859911 0.0 0.18243899208445996 0.15561997808480119 0.0 0.25813764010203416 0.17075369441775132 0.0 0.4529811770002377 0.10294841158889148 0.0 0.8453910616643251 -0.02381701774919974 0.0 0.9929297446510195 -0.02286398624791255 0.0 0.5798319592841042 0.0703214595543272 0.0 0.6850789871440466 0.04121898747744842 0.0 0.8373034327694506 0.002778567398894383 0.0 0.8655934102507519 0.00315147082015231 0.0 0.5368623637007399 0.06997232880529243 0.0 1.2938861338632457 -0.0868904402129686 0.0 1.138128433567472 -0.03555296869494344 0.0 1.2556924275038328 -0.025758911336535725 0.0 1.1037604803327028 -0.01941630386921192 0.0 0.16394790069103293 0.18241726568389857 0.0 1.177896326078138 -0.08141001149905851 0.0 1.0959300341562503 -0.015794095087247606 0.0 0.8828380409473707 -0.08206705840784803 0.0 0.021346933765243076 0.2324816127270268 0.0 0.7952099949948129 -0.03620883624349368 0.0 1.1527154500481116 -0.28948774778198083 0.0 0.44498946672447226 0.07636371969351152 0.0 -0.12769536913134394 0.33106039014930977 0.0 1.3022069408136654 -0.20085992267428598 0.0 0.5000221406975798 -0.056448651049622156 0.0 -0.043748282434616766 0.2887160978297047 0.0 -0.031877364171824414 0.3345062739078749 0.0 0.3918677667419289 0.048571167828252514 0.0 0.2191874550489135 0.09387197211920041 0.0 0.8694068368158767 -0.14224274369400716 0.0 0.3339233145704673 -0.02025903258799465 0.0 0.14614388838225442 -0.09886891069155498 0.0 -0.06349783515654851 0.29668351565888834 0.0 0.3169876657849527 -0.0736930720445126 0.0 0.09221907569701196 0.11760593608450336 0.0 0.011831045187223301 0.29601384291703864 0.0 1.1478966933105788 0.06585157790599755 0.0 0.45422283637744293 0.27372563384231324 0.0 0.8617920257376684 -0.2719489980700329 0.0 0.285286393873292 0.09506353788010727 0.0 0.7551902657337697 0.0013114307563230972 0.0 0.5901196301371501 0.15760777764596645 0.0 1.1925992179934382 0.2222131881194827 0.0 1.0521220423328967 0.26259746140901974 0.0 1.226281235587325 -0.23078286791081745 0.0 -0.01619791952316067 0.17103744499989473 0.0 -0.041144255759989146 0.2620330602513386 0.0 -0.1496798236304833 0.31985155916891855 0.0 -0.013250234722266612 0.34598530912349795 0.0 -0.021838677814161475 0.27977092674185294 0.0 0.7136726794961781 -0.04079558616267788 0.0 1.2741464557980928 -0.24963218413422125 0.0 1.0041546754189894 -0.14403229727095662 0.0 1.22507839650409 -0.2901995468070848 0.0 0.01476885237018277 0.1494801060528058 0.0 0.5897639773400876 -0.18689866229823263 0.0 0.5786980937622526 -0.3140714096620559 0.0 0.8295405405599037 -0.3489094671912373 0.0 0.5129208124957126 -0.22578702245005833 0.0 0.9833499977699383 -0.043102544917012105 0.0 0.3614076743151771 -0.1940986925217337 0.0 0.3826118669535227 -0.29217274112955205 0.0 0.42716231524846066 -0.27618547784954217 0.0 0.7098285594140002 -0.3963092414325786 0.0 0.6332900873272566 0.3035347435441675 0.0 1.0975596009885544 -0.22704942170840772 0.0 1.001898432420615 -0.25939566761627453 0.0 1.0825647403471723 -0.12382946331965325 0.0 0.7634447383563933 -0.15292814668682486 0.0 1.1823848835946054 -0.37477172982576173 0.0 1.2982289309869262 -0.2420625170715204 0.0 1.2692263629545986 -0.19134702727719943 0.0 1.2258083284190604 -0.13386213886992254 0.0 1.0927137576479908 -0.34252984492562794 0.0 1.0465480801526053 -0.3841405273284298 0.0 0.9684194381509833 -0.4143972924025198 0.0 0.9649969070698052 -0.40481710323056835 0.0 0.7854933610478139 -0.380279787240301 0.0 1.1201528581332603 -0.38821284751211393 0.0 0.5446888899996236 0.2726527895899392 0.0 0.9243658006285362 0.2794278884413565 0.0 0.22809421073240033 0.29536757801791497 0.0 0.36871422278285065 0.3215574696736441 0.0 -0.050670324750140154 0.30102718899506326 0.0 1.2106232735901084 0.0729873911828078 0.0 0.977785334526327 0.11057941697330181 0.0 1.2391485824124788 -0.024466183548167233 0.0 1.2196278587402596 -0.11930418370879316 0.0 0.8228446124737322 -0.4086007444362435 0.0 0.9065369860447028 -0.38313832513390267 0.0 0.7983082917489931 0.2869342073883314 0.0 0.17759245811373692 0.3383244258351473 0.0 1.1513545867084665 0.10290298821830098 0.0 1.2461707092736451 -0.04673035425112096 0.0 0.27125203970061657 -0.04947276318657668 0.0 1.231850743785606 -0.16520325294275431 0.0 0.8672060550587972 0.28952782637592983 0.0 1.0944342581633069 0.1756920199752694 0.0 0.5336631274894899 0.30164136899469773 0.0 0.834156309785675 0.23517455223611217 0.0 1.1498207444445303 0.13353336638772995 0.0 1.0973508769882008 -0.04217642101337596 0.0 1.2042509641954655 -0.20287238508352473 0.0 0.9801993690644899 0.25655089594026337 0.0 1.0156860906010063 0.20062782602932017 0.0 1.090734481789135 0.22216536225382671 0.0 0.9756363189529155 0.036395658106664994 0.0 0.9336005415536076 0.06465925844769965 0.0 0.948059573461514 0.17616402196830014 0.0 0.7132929537653011 0.18454237333095705 0.0 1.0737961075861182 -0.21685105307579527 0.0 0.0 0.0 0.0 1.0319294528533456 0.13319919985952516 0.0 0.7885210830500388 0.07124004165802501 0.0 0.3339755909988691 0.23713963428426055 0.0 1.0113662283140639 0.12004689098619348 0.0 0.8283561547471127 0.11571840297616055 0.0 0.9990411764145751 0.08995584166607362 0.0 0.5597995281205654 0.14961105111997824 0.0 0.9710961738588858 -0.013938019459355038 0.0 0.34831771917658383 0.056440219958680954 0.0 0.14509084509778278 0.16515424667017264 0.0 0.9148504137619896 0.016971380193114966 0.0 0.5307612023884017 0.09477666395280014 0.0 0.8270763750485822 -0.02576916193085355 0.0 0.6427983788859963 0.016718349829557336 0.0 0.5009887483952333 -0.04182570189256182 0.0 1.0099296827698316 0.1336329845062004 0.0 0.9558926938652991 0.1107069310348285 0.0 0.9763499426786308 0.08979674914214297 0.0 0.10143093360964368 0.24500026700626318 0.0 0.8534109270887826 -0.005614280991690956 0.0 0.9478894902065252 -0.034083129471368295 0.0 0.8980055696076845 -0.05092013049284373 0.0 1.048456925306525 -0.0408576180112889 0.0 1.0063526851969606 -0.05663616399967885 0.0 0.9550162147268919 0.049891001874592944 0.0 0.8411097283629787 0.04608411721966094 0.0 0.6704088344577372 -0.11102705085418098 0.0 0.9692420788002417 -0.023961941528455488 0.0 0.9516254693768167 0.012465178793666449 0.0 0.7140916628435214 0.01649652070516245 0.0 0.9304057732471785 -0.07537792404809583 0.0 0.8856340850537004 -0.08998213001622693 0.0 0.7876328401612821 -0.07508484460117906 0.0 1.0149595106478504 -0.018069055734088176 0.0 0.0 0.0 0.0 0.6491430484109285 -0.02141497730106312 0.0 1.083400925747003 0.4002416760421644 0.0 1.174883330309582 0.3776649597947022 0.0 1.1107326248045362 -0.4063529420146632 0.0 0.8664649996233629 -0.20789940482090657 0.0 0.9798459354610946 -0.22322992747473094 0.0 0.8949893492005996 -0.08934526867343945 0.0 1.3163495465041577 0.02936217807165906 0.0 1.2356020740628262 -0.0025117675586645376 0.0 1.294139285517922 -0.03440406461111227 0.0 1.1763894596067368 -0.006556587984091888 0.0 1.2131112117005929 0.033542857652357386 0.0 -0.13793621990789665 -0.09005561534099882 0.0 -0.16313600615927687 -0.03654503246558669 0.0 -0.11422017703598535 -0.012955006777852359 0.0 -0.10779645225366119 -0.03373667166265197 0.0 0.024531360520702327 -0.026480152016905893 0.0 -0.1319694146395216 -0.048245156782802036 0.0 -0.06367918255827075 -0.014847409108137076 0.0 0.061803048733318544 -0.013492919561096665 0.0 -0.046292230855770944 0.007539633189532324 0.0 -0.09335875751081546 -0.02980827347369362 0.0 0.9741091777208689 0.11385579023195619 0.0 -0.07187253259535903 0.35816151641172195 0.0 1.2199243938212545 -0.2818279142474428 0.0 1.272238290436648 -0.3003225237376668 0.0 1.2334659504234695 -0.3358419029646073 0.0 1.2153739006453186 -0.33890218141411604 0.0 1.0063179204947388 -0.213605953941544 0.0 1.1688355019570165 -0.3724608645596318 0.0 1.0743508572269442 -0.2617917493022395 0.0 1.1280437998833737 -0.32946145077895683 0.0 1.1665615686818254 -0.32714840077859414 0.0 1.041304966085448 -0.32061923985145213 0.0 1.0937051401369722 -0.34853225746498123 0.0 1.0367961275722568 -0.38517415723070514 0.0 1.0561008072468487 -0.2840726558198097 0.0 0.9377270559310704 -0.15370065934369256 0.0 0.9904854357755013 -0.23008046688660755 0.0 0.7951170571897954 -0.12951427625599127 0.0 0.9916234922650121 -0.2090364805322205 0.0 0.9478443125622045 -0.28319705596820505 0.0 0.9384793537069638 -0.1534961623000677 0.0 0.953361553592423 -0.21521544686437213 0.0 0.8429695537375127 -0.18940418264905837 0.0 0.7870459459724772 -0.07890792853656167 0.0 0.9070317044190996 -0.2197591103188252 0.0 0.7873204910694023 -0.31495132924110264 0.0 0.8849570069103175 -0.15043560487737254 0.0 0.8459375424928676 -0.2592545246958062 0.0 0.8115915011002008 0.047828221852537295 0.0 0.6598981368234028 -0.2