<?xml version="1.0"?>
<VTKFile type="UnstructuredGrid"  version="0.1"  >
<UnstructuredGrid>
<Piece  NumberOfPoints="1289" NumberOfCells="2413">
<Points>
<DataArray  type="Float64"  NumberOfComponents="3"  format="ascii">0 0 0  0 0.41 0  2.2 0.41 0  2.2 0 0  0.1 0.1 0  0.1 0.3 0  0.8 0.3 0  0.8 0.1 0  0.25 0.2 0  0.248976 0.210065 0  0.245948 0.219718 0  0.241038 0.228563 0  0.234448 0.23624 0  0.226448 0.242432 0  0.217365 0.246888 0  0.207571 0.249423 0  0.197468 0.249936 0  0.187467 0.248404 0  0.17798 0.24489 0  0.169395 0.239539 0  0.162062 0.232569 0  0.156283 0.224265 0  0.152293 0.214968 0  0.150257 0.205058 0  0.150257 0.194942 0  0.152293 0.185032 0  0.156283 0.175735 0  0.162062 0.167431 0  0.169395 0.160461 0  0.17798 0.15511 0  0.187467 0.151596 0  0.197468 0.150064 0  0.207571 0.150577 0  0.217365 0.153112 0  0.226448 0.157568 0  0.234448 0.16376 0  0.241038 0.171437 0  0.245948 0.180282 0  0.248976 0.189935 0  1.1 0 0  1.1 0.41 0  0.1 0.2 0  0.45 0.1 0  0.45 0.3 0  0.55 0 0  0.275 0.1 0  0.275 0.3 0  0.275 0 0  0.55 0.41 0  0 0.205 0  0.825 0 0  0.825 0.41 0  0.275 0.41 0  0.1 0.15 0  0.1875 0.1 0  0.1 0.25 0  0.1875 0.3 0  0.132322 0.2 0  0.241426 0.253518 0  0.241426 0.146482 0  0.264574 0.17974 0  0.264574 0.22026 0  0.138434 0.187348 0  0.153372 0.150948 0  0.148413 0.164094 0  0.176495 0.136535 0  0.22768 0.143571 0  0.138434 0.212652 0  0.148413 0.235906 0  0.176495 0.263465 0  0.22768 0.256429 0  0.23125 0.3 0  0.24769 0.24094 0  0.23125 0.1 0  0.24769 0.15906 0  0.26253 0.193641 0  0.190482 0.137872 0  0.166753 0.146661 0  0.157737 0.244461 0  0.190482 0.262128 0  0.203107 0.261264 0  0.253635 0.22977 0  0.203107 0.138736 0  0.253635 0.17023 0  0.261028 0.206206 0  0.167707 0.251809 0  0.143629 0.224191 0  0.215302 0.2591 0  0.270465 0.245894 0  0.215302 0.1409 0  0.270465 0.154106 0  0.284052 0.202587 0  0.14375 0.3 0  0.209375 0.3 0  0.225966 0.278501 0  0.209375 0.1 0  0.225966 0.121499 0  0.211613 0.273759 0  0.211613 0.126241 0  0.143629 0.175809 0  0.1 0.175 0  0.133484 0.164832 0  0.144491 0.249539 0  0.1 0.225 0  0.133484 0.235168 0  0.3625 0.3 0  0.25691 0.253381 0  0.25691 0.146619 0  0.277205 0.188698 0  0.184724 0.275712 0  0.237372 0.268285 0  0.184724 0.124288 0  0.237372 0.131715 0  0.197578 0.273149 0  0.193656 0.286994 0  0.197578 0.126851 0  0.193656 0.113006 0  0.122953 0.187671 0  0.118362 0.153758 0  0.155372 0.258107 0  0.122953 0.212329 0  0.118362 0.246242 0  0.276394 0.27264 0  0.276394 0.12736 0  0.280965 0.170013 0  0.253125 0.3 0  0.14375 0.1 0  0.253125 0.1 0  0.269489 0.26014 0  0.269489 0.13986 0  0.303639 0.184297 0  0.165625 0.3 0  0.134742 0.273113 0  0.257831 0.274737 0  0.255279 0.128499 0  0.3625 0.1 0  0.165625 0.1 0  0.162031 0.132368 0  0.134955 0.126405 0  0.149334 0.125568 0  0.142936 0.139597 0  0.12695 0.140259 0  0.242514 0.285501 0  0.242514 0.114499 0  0.1 0.125 0  0.117483 0.12555 0  0.11154 0.139776 0  0.121875 0.1 0  0.109143 0.1125 0  0.126805 0.114 0  0.220313 0.29129 0  0.351562 0.287369 0  0.207222 0.2866 0  0.220312 0.10871 0  0.1375 0 0  0.20625 0 0  0.207222 0.1134 0  0.11722 0.17118 0  0.1 0.1625 0  0.0778409 0.16875 0  0.0862762 0.15625 0  0 0.15375 0  0 0.1025 0  0.11722 0.22882 0  0.1 0.2375 0  0 0.3075 0  0.0862762 0.23125 0  0.0598995 0.222547 0  0.0860223 0.2125 0  0.289584 0.181469 0  0.300267 0.16446 0  0.163832 0.269071 0  0.149597 0.273325 0  0.1 0.275 0  0.268498 0.285953 0  0.31875 0.3 0  0.294154 0.254672 0  0.296875 0.3 0  0.293558 0.271845 0  0.285095 0.286799 0  0.324298 0.264316 0  0.307866 0.263745 0  0.317093 0.234901 0  0.315485 0.281219 0  0.316547 0.250625 0  0.344693 0.243731 0  0.331592 0.251147 0  0.35129 0.270663 0  0.338689 0.263683 0  0.340625 0.3 0  0.249849 0.264383 0  0.265097 0.11422 0  0.284688 0.156136 0  0.242188 0.324017 0  0.0856613 0.2625 0  0.132812 0.0612217 0  0.264062 0.0612217 0  0.198437 0.07598340000000001 0  0.0860223 0.1375 0  0.0794526 0.191089 0  0.285228 0.140397 0  0.298655 0.148737 0  0.31875 0.1 0  0.327335 0.15374 0  0.296875 0.1 0  0.312289 0.155283 0  0.313348 0.135607 0  0.321802 0.173916 0  0.298433 0.134116 0  0.112124 0.2625 0  0.127526 0.259083 0  0.121875 0.3 0  0.0682687 0.241503 0  0.1 0.2875 0  0.117762 0.28125 0  0.107813 0.3 0  0.103906 0.313849 0  0.0778409 0.28125 0  0.1375 0.41 0  0.0862762 0.29375 0  0.08886860000000001 0.24375 0  0.307812 0.338778 0  0.307812 0.292227 0  0.33216 0.279164 0  0.387888 0.266414 0  0.264063 0.31948 0  0.110937 0.07598340000000001 0  0.242188 0.07598340000000001 0  0.319914 0.11839 0  0.340625 0.1 0  0.334448 0.133793 0  0.329687 0.108539 0  0.346259 0.118491 0  0.360334 0.173636 0  0.327539 0.205033 0  0.132812 0.288712 0  0.362436 0.278836 0  0.368105 0.259418 0  0.4125 0.41 0  0.329687 0.324017 0  0.329687 0.292306 0  0.285938 0.318952 0  0.417187 0.338778 0  0.324481 0.14148 0  0.351562 0.106771 0  0.40625 0.1 0  0.341028 0.168342 0  0.319221 0.190479 0  0.335292 0.184501 0  0.305563 0.20794 0  0.220313 0.31948 0  0.132812 0.332772 0  0.0865876 0.311259 0  0.0598995 0.302453 0  0.0906541 0.343255 0  0.353543 0.255837 0  0.36574 0.237633 0  0.405007 0.254279 0  0.275795 0.352123 0  0.4125 0 0  0.35493 0.137394 0  0.366563 0.120618 0  0.35917 0.205246 0  0.198438 0.318952 0  0.0626109 0.263892 0  0.40625 0.3 0  0.354809 0.155936 0  0.386512 0.146872 0  0.373101 0.159939 0  0.384375 0.1 0  0.343394 0.19929 0  0.350682 0.185683 0  0.368101 0.189748 0  0.344016 0.221511 0  0.391108 0.213329 0  0.376279 0.204783 0  0.398843 0.182768 0  0.375804 0.222746 0  0.390665 0.196958 0  0.394004 0.23518 0  0.359883 0.222828 0  0.419908 0.204359 0  0.404243 0.204783 0  0.412615 0.224526 0  0.20625 0.41 0  0.165625 0.325257 0  0.0347982 0.244954 0  0.379558 0.247154 0  0.34165 0.147603 0  0.372264 0.136992 0  0.388988 0.121989 0  0.373437 0.108554 0  0.351562 0.31948 0  0.391367 0.16527 0  0.399572 0.223324 0  0.452011 0.227371 0  0.40877 0.239392 0  0.431491 0.237337 0  0.421224 0.250459 0  0.449619 0.262098 0  0.418865 0.276779 0  0.437063 0.252274 0  0.415673 0.263227 0  0.430988 0.266772 0  0.402767 0.273419 0  0.452967 0.244883 0  0.428125 0.3 0  0.408502 0.286186 0  0.384375 0.3 0  0.392267 0.285807 0  0.465927 0.219339 0  0.43489 0.283846 0  0.376424 0.286289 0  0.625 0.3 0  0.473533 0.205186 0  0.461713 0.255517 0  0.5375 0.3 0  0.465725 0.235405 0  0.44631 0.201425 0  0.471875 0.3 0  0.494307 0.227729 0  0.459448 0.206736 0  0.462294 0.180792 0  0.478933 0.227536 0  0.486793 0.21381 0  0.486322 0.251373 0  0.50065 0.215318 0  0.54005 0.175389 0  0.474633 0.189893 0  0.512916 0.208697 0  0.49531 0.199967 0  0.475889 0.175275 0  0.625 0.1 0  0.459311 0.153933 0  0.513645 0.242704 0  0.392892 0.248539 0  0.374815 0.271913 0  0.365974 0.14871 0  0.395312 0.109184 0  0.417061 0.123981 0  0.483196 0.277003 0  0.381967 0.179632 0  0.429898 0.219374 0  0.433473 0.206165 0  0.43149 0.181038 0  0.444208 0.215487 0  0.472985 0.247309 0  0.49375 0.3 0  0.475579 0.262714 0  0.49916 0.274293 0  0.501175 0.184809 0  0.514164 0.225681 0  0.543648 0.214977 0  0.5341630000000001 0.23481 0  0.527396 0.216171 0  0.5375 0.1 0  0.534548 0.202315 0  0.561545 0.192513 0  0.5494289999999999 0.201221 0  0.570923 0.218346 0  0.412582 0.149833 0  0.489327 0.264745 0  0.502439 0.254775 0  0.462391 0.271166 0  0.496775 0.241732 0  0.5294410000000001 0.268606 0  0.482812 0.291099 0  0.46879 0.285038 0  0.452663 0.284065 0  0.51789 0.257882 0  0.53408 0.252026 0  0.560142 0.243543 0  0.545708 0.243474 0  0.547532 0.229019 0  0.55282 0.265323 0  0.398971 0.153424 0  0.400349 0.135684 0  0.410135 0.168145 0  0.428823 0.161323 0  0.415266 0.183779 0  0.329687 0.0810483 0  0.395312 0.0612217 0  0.373437 0.318952 0  0.439062 0.324017 0  0.561816 0.229354 0  0.585029 0.239287 0  0.431827 0.139854 0  0.446796 0.168929 0  0.351562 0.07598340000000001 0  0.395313 0.318944 0  0.54337 0.150762 0  0.460937 0.31948 0  0.418412 0.137529 0  0.428125 0.1 0  0.442783 0.152332 0  0.450742 0.134294 0  0.373437 0.0805201 0  0.384383 0.342558 0  0.482812 0.318952 0  0.429239 0.127457 0  0.444274 0.117405 0  0.426548 0.113815 0  0.49375 0.1 0  0.488954 0.113984 0  0.457973 0.121842 0  0.471621 0.137346 0  0.515625 0.325257 0  0.48125 0.41 0  0.417187 0.07598340000000001 0  0.496363 0.126778 0  0.479043 0.155715 0  0.439062 0.0805201 0  0.481795 0.126919 0  0.471875 0.1 0  0.489227 0.142159 0  0.515625 0.1 0  0.520062 0.147117 0  0.501244 0.161791 0  0.505431 0.112984 0  0.505344 0.14029 0  0.526563 0.119081 0  0.5181750000000001 0.131908 0  0.539868 0.136937 0  0.460937 0.108383 0  0.474242 0.114415 0  0.460937 0.0810483 0  0.487841 0.167168 0  0.526563 0.0612217 0  0.526563 0.106406 0  0.537619 0.112743 0  0.58125 0.1 0  0.559375 0.1 0  0.482812 0.08105569999999999 0  0.471883 0.0587655 0  0.570312 0.129396 0  0.548437 0.07598340000000001 0  0.504687 0.08105569999999999 0  0.49375 0.0470127 0  0.570312 0.112663 0  0.592798 0.12103 0  0.553986 0.12103 0  0.570312 0.0805201 0  0.48125 0 0  0.114787 0.2 0  0.160769 0.284765 0  0.175816 0.288361 0  0.162602 0.116048 0  0.154687 0.07598340000000001 0  0.176562 0.0805201 0  0.0598995 0.147547 0  0.307812 0.109924 0  0.291279 0.117157 0  0.278491 0.112989 0  0.285937 0.07598340000000001 0  0.307812 0.0805201 0  0.296928 0.196743 0  0.318141 0.218507 0  0.330208 0.227509 0  0.301397 0.225668 0  0.302706 0.241401 0  0.292574 0.21424 0  0.282762 0.230935 0  0.284351 0.244775 0  0.269553 0.23261 0  0.278572 0.217242 0  0.226924 0.342606 0  0.446928 0.185396 0  0.515625 0.3 0  0.504687 0.288879 0  0.515256 0.276534 0  0.529479 0.285328 0  0.58125 0.3 0  0.541969 0.272936 0  0.559375 0.3 0  0.556796 0.282529 0  0.543473 0.287206 0  0.581429 0.267774 0  0.566728 0.271171 0  0.570869 0.255585 0  0.577404 0.283865 0  0.603125 0.3 0  0.597531 0.28035 0  0.570312 0.338778 0  0.592188 0.292492 0  0.603513 0.256094 0  0.614063 0.286265 0  0.610329 0.27064 0  0.632708 0.251285 0  0.657223 0.261594 0  0.618789 0.257807 0  0.614188 0.22987 0  0.630935 0.265614 
[...]
<PointData  Vectors="v"> 
	<DataArray  type="Float64"  Name="v"  NumberOfComponents="3" format="ascii">
0.0 0.0 0.0 0.0 0.0 0.0 0.0 0.0 0.0 0.0 0.0 0.0 0.7994407618634545 -0.19223062240965746 0.0 0.8393523390860327 0.1941716220266833 0.0 0.8715814819106367 0.07541477161320537 0.0 0.8903905701685836 0.08776105076773713 0.0 0.0 0.0 0.0 0.0 0.0 0.0 0.0 0.0 0.0 0.0 0.0 0.0 0.0 0.0 0.0 0.0 0.0 0.0 0.0 0.0 0.0 0.0 0.0 0.0 0.0 0.0 0.0 0.0 0.0 0.0 0.0 0.0 0.0 0.0 0.0 0.0 0.0 0.0 0.0 0.0 0.0 0.0 0.0 0.0 0.0 0.0 0.0 0.0 0.0 0.0 0.0 0.0 0.0 0.0 0.0 0.0 0.0 0.0 0.0 0.0 0.0 0.0 0.0 0.0 0.0 0.0 0.0 0.0 0.0 0.0 0.0 0.0 0.0 0.0 0.0 0.0 0.0 0.0 0.0 0.0 0.0 0.0 0.0 0.0 0.0 0.0 0.0 0.0 0.0 0.0 0.0 0.0 0.0 0.0 0.0 0.0 0.0 0.0 0.0 0.7650105574570857 -0.010003240361424937 0.0 1.119773057060091 0.16719829308162887 0.0 1.2695603791396313 -0.08938665244118123 0.0 0.0 0.0 0.0 1.3142674881904801 -0.06838419022429826 0.0 1.3008580079799081 0.08119583199047663 0.0 0.0 0.0 0.0 0.0 0.0 0.0 1.0 0.0 0.0 0.0 0.0 0.0 0.0 0.0 0.0 0.0 0.0 0.0 0.8492351631857578 -0.23519825657203583 0.0 1.1613555509899085 -0.30303660925623627 0.0 0.8665011592113411 0.2180430105415698 0.0 1.1637606915974714 0.30276448104261905 0.0 0.4321615958671454 -0.015398249039051083 0.0 0.17640698298340213 0.02084425293298162 0.0 0.1724531704598928 -0.025972290029309432 0.0 -0.04179094954268706 -0.10648729044835202 0.0 -0.05206494728517311 0.021166794603694594 0.0 0.3401361471541852 -0.2942317665792374 0.0 0.8799250241120145 -0.6807385747919416 0.0 0.6566323361347158 -0.7043175704041245 0.0 1.2522542613596617 -0.6077096920120699 0.0 0.30653219191259445 0.002224310773600195 0.0 0.3322256479252972 0.2579060152316119 0.0 0.6484891595396483 0.6628651699087726 0.0 1.2166569822192501 0.5975498397434318 0.0 0.3014334235696364 -0.0037482492878026753 0.0 1.2758241604306404 0.18522845308132646 0.0 -0.01652234698753886 0.04481690905609144 0.0 1.2808621748592741 -0.17303330659964997 0.0 -0.017583449322429685 -0.0598477299423044 0.0 -0.03537469036533108 -0.0729024417506328 0.0 1.2349267948266294 -0.4017650525758303 0.0 1.1376025077298393 -0.7377331914650693 0.0 0.8660065858332954 0.769826313598919 0.0 1.231056297578854 0.39606109880696144 0.0 0.91533907890223 0.16265098120362015 0.0 -0.036645446515596265 0.048579671177583085 0.0 0.926174176958312 -0.16191629068988056 0.0 -0.03826443710909599 -0.08655878671829528 0.0 -0.02991898407908252 -0.022833828376749805 0.0 1.0564490076813413 0.722480055646014 0.0 0.44413066873562657 0.5212501004661999 0.0 0.5463415534076294 0.029307291265330774 0.0 0.07276197176020181 0.019566106871491525 0.0 0.5512871722705978 -0.03126544376577092 0.0 0.09402586239335128 -0.07600537446162782 0.0 -0.11242985102713171 -0.054364041684343785 0.0 0.965541349639994 0.2924780029737436 0.0 1.2470290510043553 0.23908203151011326 0.0 1.2949881328752946 0.19630360209975983 0.0 1.233226462313933 -0.2431745597583682 0.0 1.3040806683325188 -0.19634790484815923 0.0 1.304275516558834 0.2480767248983903 0.0 1.3186085492139197 -0.24684892186807883 0.0 0.45438956417421056 -0.5616917352416504 0.0 0.8073454987455345 -0.146598176178303 0.0 0.6830536475122432 -0.4293462087771651 0.0 0.8871251707471147 0.5834535907815719 0.0 0.8021520538514644 0.13279389795807084 0.0 0.6813880098221179 0.4081654131606549 0.0 1.2401169359731823 -0.02027500622130406 0.0 0.20289466433277084 0.019157839029598677 0.0 0.21215184114587138 -0.036040702527738395 0.0 -0.07757073143278602 -0.09287844378462604 0.0 1.2982890761691523 0.4219329478004133 0.0 0.8867459266799854 0.060686959258592625 0.0 1.306191048969727 -0.4358471234895283 0.0 0.9082787793570276 -0.061319345468834066 0.0 1.3302084025962624 0.3539370001057843 0.0 1.2660041649699474 0.33920898384838993 0.0 1.3376601305014921 -0.358846533212695 0.0 1.2692086586750722 -0.327740468238499 0.0 0.5900897563047061 -0.17157563124045047 0.0 0.806381128869076 -0.3372465546668906 0.0 1.0267393054886926 0.5891726033063077 0.0 0.5952589730897786 0.1392760461726934 0.0 0.8167424096155683 0.3194743861622951 0.0 0.8794851639536349 0.017355994448590248 0.0 0.929993375646657 -0.03106262646329224 0.0 -0.01593895613763334 -0.10717085269999567 0.0 1.2998577272060483 0.12524522275110542 0.0 0.9385134428506722 -0.30881356456785874 0.0 1.3012872344064097 -0.11484607830651762 0.0 0.4208016887217732 0.006430101323947822 0.0 0.45335955910288417 -0.02956936014936581 0.0 -0.10343359617095946 -0.09342521863934376 0.0 1.0579881519903303 0.31711699805702465 0.0 0.94930816944465 0.37319492116284 0.0 1.0344582488715017 0.05850825011633358 0.0 0.9404937884027965 -0.049641762064675035 0.0 1.2940491255284876 0.10892200139190523 0.0 1.0391165241194458 -0.320448144460406 0.0 1.1054677765367074 -0.5631848824723669 0.0 0.9448815467120746 -0.3849696040836735 0.0 1.017914256450903 -0.42951497311131864 0.0 0.9531169157373887 -0.5446875170668288 0.0 0.8784874214058861 -0.40814784488858447 0.0 1.3058596758699652 0.14696000966484235 0.0 1.3134136636474187 -0.1449306966886454 0.0 0.8585034753617607 -0.23489629298051581 0.0 0.8884940618965922 -0.30781467231156867 0.0 0.8617496706610703 -0.30039245528948344 0.0 0.8568100968141807 -0.24906637736944778 0.0 0.8603026605953953 -0.24884993696431168 0.0 0.9059447868165119 -0.3132446863853816 0.0 1.3107569667845904 0.22006700296346382 0.0 1.1179249916838394 -0.0273215074293098 0.0 1.3229308916536364 0.2813384352838782 0.0 1.3153211594440817 -0.20827215974175953 0.0 0.0 0.0 0.0 0.0 0.0 0.0 1.318781379955991 -0.27673328609750064 0.0 0.7220414567951988 -0.2760159601647085 0.0 0.8264527134378277 -0.2159216827657384 0.0 0.8746091871316094 -0.1149624901519639 0.0 0.8669135682542919 -0.16717367889378484 0.0 0.9375 0.0 0.0 0.7500000000000001 0.0 0.0 0.7260437051968941 0.2544511590787681 0.0 0.8268444348050068 0.18973806812206023 0.0 0.7499999999999999 0.0 0.0 0.8717715447871373 0.11876165126755263 0.0 0.9298682822347203 0.03724858327631895 0.0 0.8508308631099493 0.03706431523457189 0.0 -0.07609888941152475 -0.10128936295746603 0.0 0.05024554210358822 -0.0924161127050467 0.0 1.1338422117924838 0.5310104912297543 0.0 1.029029413253362 0.4522258551150496 0.0 0.8821158718257011 0.23261048342514085 0.0 1.2438097362420104 0.07218158580216932 0.0 1.2727750157960784 0.013455261629829114 0.0 0.2781870954999374 -0.020768336952030723 0.0 1.294257203844945 0.04183785599360625 0.0 0.8160545629502137 -0.008221171832894478 0.0 1.2189520837963341 0.03978638972546851 0.0 0.5480970924142207 -0.042601412351437225 0.0 0.5338737107352037 -0.0314864993555435 0.0 -0.03722698639336885 -0.03100337899225815 0.0 1.046535956860336 -0.014597166231426855 0.0 0.1963926767922921 -0.03500575282279318 0.0 0.0895065373343958 -0.03365927491294421 0.0 0.21435992905148468 -0.03955281874967369 0.0 0.7204595519642647 -0.0406570920679761 0.0 0.5258356683307986 -0.04422973149510264 0.0 1.2589446444679635 -0.0098973471410355 0.0 0.6191385334194246 0.020072367896195816 0.0 1.2792874030411845 -0.08395326668340981 0.0 0.11826689870897598 -0.08020555572253477 0.0 1.141546314911572 0.10938510444171815 0.0 0.884207121422379 0.16947300828016626 0.0 0.6988987472326901 -0.15785846362111014 0.0 1.0494319682273943 -0.05134890542607025 0.0 1.0233766883132736 -0.18359360055354845 0.0 0.8680685237501816 -0.18352957680262283 0.0 0.878187250066848 -0.031809667955290694 0.0 0.4607417209323656 -0.03322760181345984 0.0 0.2847132811234194 -0.05265594670055403 0.0 1.3160163723224054 0.02557193072537343 0.0 0.27134448213371715 -0.043184818238431094 0.0 1.3216802665947804 -0.023673319369911534 0.0 0.2019371783607288 -0.06434649638885154 0.0 0.6755981275895071 0.0028084862280726374 0.0 -0.026500493072812725 -0.08283779489402725 0.0 0.68656168484859 -0.012102612090168942 0.0 0.8821886400124771 0.28369887129360843 0.0 0.8850425377475604 0.3966303376373226 0.0 0.8838142076975685 0.25169927622292165 0.0 0.9135280915358207 0.10239851945682092 0.0 0.8653821737377518 0.2098053009502094 0.0 0.9066726379020592 0.28741949622088414 0.0 0.8561978798179425 0.21822814587639025 0.0 0.7996070786519012 0.16946231995092081 0.0 0.8671483172452209 0.15182665550291694 0.0 0.0 0.0 0.0 0.8409361258262634 0.16551781260569404 0.0 0.8727439943097083 0.16134776799632214 0.0 1.1027976502521388 0.014663286823103609 0.0 1.2427259952052916 0.012237889206058084 0.0 0.9694608766403247 -0.029754507687942425 0.0 0.6243788233425059 -0.017609227098481513 0.0 1.2012843448988815 0.08309767933911216 0.0 0.7183219427883735 -0.1671229618611647 0.0 1.1301281836404502 -0.10654472562041081 0.0 1.1620871507248756 0.024539441177882253 0.0 1.3134591478268902 0.06902894953485438 0.0 0.7877013686063931 0.03929521348337185 0.0 1.2946213067818846 0.04974808170536889 0.0 1.1773398516204974 0.08254475935816165 0.0 0.011316874455149385 -0.010508860819217054 0.0 -0.2007212437946862 -0.05924811832094368 0.0 0.9471854354994942 0.3205194623019651 0.0 0.9345930762540472 -0.03678587453410735 0.0 0.42652289383570935 -0.027344467245603334 0.0 0.0 0.0 0.0 1.2012265397436164 0.003953617218201602 0.0 1.21558174941768 -0.012243459801602762 0.0 1.2175231601469183 0.05522775036815784 0.0 1.1197301167149087 -0.054959080592109036 0.0 0.5393689674896258 -0.008348910056332945 0.0 1.2931478528059945 0.09876503753811333 0.0 1.221547241019799 0.17095155949957477 0.0 0.06180522828581243 -0.04928420384405366 0.0 -0.15292560451968257 -0.08002957587485283 0.0 -0.12489344941951872 -0.06990517938644172 0.0 -0.16269109797735168 -0.05546216456281049 0.0 1.1448016479559635 0.15910152412737658 0.0 0.7700903256140161 0.17937254430219815 0.0 0.7764209802196036 0.14325133404084636 0.0 0.7852580067607763 0.09986814852349246 0.0 0.616480370890501 0.10160408313238183 0.0 0.3308565113463423 -0.03550490171149185 0.0 0.011225282814571283 -0.002827461718165539 0.0 0.37810680069663133 0.030304705385769393 0.0 0.978231172910315 0.04118122863317946 0.0 0.0 0.0 0.0 0.751990931523232 0.07365304065575604 0.0 1.1509436971061882 0.13172525921190392 0.0 -0.23152446240062785 -0.017773357091127713 0.0 1.0738476782794832 0.21588603306837592 0.0 0.9007594565690434 0.10512979070515595 0.0 1.2444861639318456 -0.04086686079827974 0.0 0.3092562449494164 0.009862546729011431 0.0 0.6124120756465637 0.14100268297019658 0.0 0.277770177087933 0.05477881414879296 0.0 1.266437275215611 0.14732817389662706 0.0 -0.21168916078204386 -0.049560878130877235 0.0 -0.1357922040026221 -0.044428945067975456 0.0 -0.16947781151326083 -0.0006420898738553091 0.0 -0.15940824924237898 -0.030460200514144043 0.0 -0.21731364072776116 0.06732807880366988 0.0 -0.23718281174744932 0.024912217612687186 0.0 -0.07043738952827326 0.11323742008417642 0.0 -0.15706119122025589 0.02579786576172096 0.0 -0.2127255898551273 0.07215352867041484 0.0 0.008933845952861702 0.05341584199880953 0.0 -0.15939070845809553 -0.007922182896069578 0.0 -0.2180725030812473 0.1757589394637964 0.0 -0.2304713821852643 0.12194102228962647 0.0 -0.10297354766746046 0.11603294892867899 0.0 0.0 0.0 0.0 0.9327223685861373 0.22420798930298144 0.0 0.9516601924890687 0.03669629315102005 0.0 0.18379953918865555 0.0038467511922524286 0.0 0.44660227281715265 0.0031777289056259123 0.0 0.8146014552663935 0.12450008680717588 0.0 1.1380544350288608 0.18159768465159062 0.0 1.2705888605611064 0.14567386382550127 0.0 1.2269741509309329 -0.009476891378060268 0.0 0.21698412647565032 0.11112708688993021 0.0 -0.13472784430107532 0.0834312891426917 0.0 0.05425886411297181 0.16840112623878595 0.0 0.1085111264045759 0.07604889962679806 0.0 0.14034726215606297 0.11711657306554733 0.0 0.3522512492734474 0.05933753391240466 0.0 0.7096362633640887 0.008849063408322314 0.0 0.9276050382529729 -0.022465521485134865 0.0 0.4506209525459585 0.060096305271509026 0.0 0.6080675528606818 0.013636839395523135 0.0 0.7381682913421319 0.0036080898200437483 0.0 0.822643726442888 -0.017995750962147606 0.0 0.3752904768342901 0.0871509745883555 0.0 1.2553393481349655 -0.05928931604466953 0.0 1.095494300206606 -0.03387163621657789 0.0 1.2384214887992002 -0.02918814913889245 0.0 1.0787318575465568 -0.030773749726114883 0.0 -0.0005265277802248545 0.20114913344960925 0.0 1.1021434009751796 -0.04875796158410745 0.0 1.0869420956134024 -0.03172568715459969 0.0 0.9948426270273344 -0.1495959274624394 0.0 -0.10276142870925216 0.24921611022550072 0.0 0.6333129513771183 0.021894192728424196 0.0 1.2223682746360636 -0.2458408294451185 0.0 0.26151847770718756 0.12053114495913278 0.0 -0.175852066880804 0.24120413451707814 0.0 1.2806762521554456 -0.13126183625360477 0.0 0.2838928594733735 0.08253034564635861 0.0 -0.1462159114493556 0.24929709318045368 0.0 0.004966410525568106 0.2777635003877566 0.0 0.19173468381592434 0.13295712529478335 0.0 0.027603905589144478 0.18596109334127006 0.0 0.6829551022721687 -0.021030766761258937 0.0 0.12134101162142788 0.1280976289444129 0.0 0.05779550791413524 0.07983086665500826 0.0 -0.09068641166992153 0.2821904241548078 0.0 0.10059265889139948 0.1087583741226252 0.0 -0.06250806430491553 0.22174247470738606 0.0 0.08125849346112561 0.2764122286507394 0.0 1.0956434605056304 0.018052331256056542 0.0 0.5286785564965505 0.2572400767406124 0.0 0.6684489764573608 -0.09124628510304761 0.0 0.23545577389188607 0.026388295749731085 0.0 0.7527525767838992 -0.02921631831943383 0.0 0.504411064572832 0.06782213623327053 0.0 1.2384510880121522 0.18523803726745586 0.0 1.0916067453582636 0.23000726093164622 0.0 1.125458039176145 -0.1260641749417193 0.0 -0.04437380128045832 0.05448016735559002 0.0 -0.12222287915969943 0.1706319040494576 0.0 -0.19866985162748974 0.207390830195757 0.0 -0.008220813489503874 0.22705508623057608 0.0 -0.12379430718456065 0.20911079182435632 0.0 0.5286306451917658 0.04133408674420568 0.0 1.2802664031547195 -0.17466537204255414 0.0 0.8472693411040538 -0.04636145899531533 0.0 1.1344433564535188 -0.1682760323680223 0.0 -0.04303606801026822 0.23309842072073633 0.0 0.368195431919983 0.0016464227827588129 0.0 0.36415601057736796 -0.09871874107293194 0.0 0.6415823788665538 -0.15196288897612978 0.0 0.28901205242653527 -0.01384417281745677 0.0 1.0129077193138978 0.019177229619088045 0.0 0.14279397995551862 0.022749250893445542 0.0 0.17243370477660683 -0.08414578104500924 0.0 0.20677778264101984 -0.05665708350487333 0.0 0.5458531435238543 -0.23997974214893933 0.0 0.6026956315713698 0.21363998353419456 0.0 0.9510286533127243 -0.10166966019338593 0.0 0.8312936459112159 -0.10551999230792954 0.0 0.9545069335634444 -0.05215481088655753 0.0 0.5576385464600915 -0.006887922726471041 0.0 1.1355412639151095 -0.2555474843329031 0.0 1.2602777233362834 -0.15268384224435874 0.0 1.1906681824337864 -0.10904579679562248 0.0 1.1418055165292769 -0.07419481123155407 0.0 0.9591002220318153 -0.18512612889658123 0.0 0.9261371158861809 -0.2256446456410446 0.0 0.8826827608244223 -0.29235274984859844 0.0 0.8346890405683371 -0.24459277781641475 0.0 0.6054267810599697 -0.18864933107536216 0.0 1.1237987890034677 -0.3063794845249367 0.0 0.4897834511524377 0.16559420388026883 0.0 0.8990616136431009 0.202989131123899 0.0 0.19634636047569376 0.1755749431390726 0.0 0.3674951601751033 0.2365884246323001 0.0 -0.06455379563115964 0.16818466424337225 0.0 1.2321093180591556 0.04344036136698414 0.0 1.032323634604342 0.10224310424417615 0.0 1.2314091277418113 -0.023111207273841177 0.0 1.2177562748009667 -0.08121546672574192 0.0 0.6760449973499105 -0.2515183279290057 0.0 0.8704863661052471 -0.3256429119830937 0.0 0.8270017539236046 0.2503593567200966 0.0 0.215919071832855 0.262362354386914 0.0 1.1861737252354516 0.07498632192086678 0.0 1.2330320631649847 -0.037037264102766365 0.0 0.39418181320369367 0.06708138814308427 0.0 1.2362882517193128 -0.11394391937906816 0.0 0.8712105101738052 0.23576322320200466 0.0 1.1735746451753462 0.17918448611009063 0.0 0.5689612343031075 0.25922281652210305 0.0 0.9043576146044688 0.2439791387676262 0.0 1.1970807749318328 0.10790514867477881 0.0 1.0958892382241174 -0.03497144944404417 0.0 1.226852415301906 -0.14730662840550318 0.0 1.0306525413129417 0.23784645784348332 0.0 1.0960663329411449 0.21765873873178743 0.0 1.1619504749321403 0.21664486017872742 0.0 1.0400433766611967 0.10016343965076181 0.0 1.0204792505877007 0.13253337423252703 0.0 1.0354830391192127 0.2098903989849792 0.0 0.8166852880934996 0.21988855597266732 0.0 1.133180635127518 -0.1770443944507827 0.0 0.0 0.0 0.0 1.0971027841546528 0.13432481547634076 0.0 0.9042765305830153 0.13867618499985782 0.0 0.45761312373310825 0.24216431726764348 0.0 1.0832150679838275 0.13856220969284427 0.0 0.9339525890943285 0.17459775066329158 0.0 1.0757386917209317 0.13836229261719396 0.0 0.6983871179478646 0.19245501778246646 0.0 1.0181308418594854 0.05490395329332666 0.0 0.5216515608864898 0.12727603965731582 0.0 0.2807071061438928 0.2096410214646818 0.0 0.9955028802233976 0.09189841331798466 0.0 0.6902305158877314 0.1497842255489143 0.0 0.9282748152369136 0.04989286536136955 0.0 0.7923788704796044 0.08999251426995704 0.0 0.6600956291997302 0.04509464048244437 0.0 1.0952632141287255 0.17509376108031838 0.0 1.0441220582477488 0.16530224341707017 0.0 1.0435774728823253 0.12465537407379168 0.0 0.2105310720389153 0.2526111598311687 0.0 0.8614605906060688 0.026116277104151174 0.0 1.0022462408126325 0.03811825095437572 0.0 0.9677813358707268 0.01997316953744303 0.0 1.0344452055574056 -0.020455870319070302 0.0 1.0140646612336426 -0.010364879810024407 0.0 1.0085323323546183 0.09583143583121215 0.0 0.891043203578814 0.07306286142263337 0.0 0.7584335309721317 -0.027698734716602846 0.0 0.9606937556784119 0.008307541799082196 0.0 0.9899868051965987 0.06387270821189688 0.0 0.7366105399186342 0.041802591517218435 0.0 0.9672485198867533 -0.025809291156068614 0.0 0.8983678577573514 -0.04770265655319279 0.0 0.8830852196082772 -0.004191899663659229 0.0 0.991395926650398 -0.00271080022616619 0.0 0.0 0.0 0.0 0.6489045329471165 -0.015487385683270584 0.0 1.0868906945353065 0.4035288685878346 0.0 1.1786843435002443 0.38038254309770764 0.0 1.1046607550625724 -0.40622210770817635 0.0 0.863541967151702 -0.2087271649034027 0.0 0.97631507015423 -0.22583496968968664 0.0 0.8943756681159025 -0.08660543036267505 0.0 1.295477692815422 -0.0011708106234136146 0.0 1.1993177624108702 -0.023923687047507535 0.0 1.271992095757146 -0.053121584561380865 0.0 1.1841839233499531 -0.025903548903977634 0.0 1.2257677056837832 0.00787249511041575 0.0 -0.13735465302910058 -0.07436745430389488 0.0 -0.155808393812684 -0.04185674807739915 0.0 -0.109282732305121 -0.03433616854375714 0.0 -0.10129401800398133 -0.023878985869178096 0.0 0.03645457651761535 -0.017735709687792176 0.0 -0.1275673098364839 -0.0319401046431425 0.0 -0.0568940078546506 0.004893474436062283 0.0 0.07383362994666509 0.002448289275204883 0.0 -0.04191898941764226 0.029067532311156247 0.0 -0.09067551193064896 -0.007748499627828149 0.0 0.9792241967663553 0.11491824940794727 0.0 -0.05982547098697766 0.2603540086636539 0.0 1.259460189634628 -0.21716227139067615 0.0 1.2618220346570488 -0.2063841911728736 0.0 1.1913132126473467 -0.22295830983296136 0.0 1.2428334096898612 -0.26033724100333167 0.0 1.1116248190187519 -0.23346041511512514 0.0 1.1787438273792252 -0.2878085917586102 0.0 1.1672891028462453 -0.2511611710767831 0.0 1.1980124003334085 -0.2929058645534835 0.0 1.2260909162377553 -0.27523718205112485 0.0 1.1118363780940952 -0.3142757890224595 0.0 1.1494434535878704 -0.31533596020571925 0.0 1.0396698490721414 -0.3270894578487653 0.0 1.15223051518608 -0.2864999525065167 0.0 1.0502281240528448 -0.20058668472354488 0.0 1.0979467749386165 -0.2641378046949776 0.0 0.887831104631203 -0.14614886462970628 0.0 1.1016233490063532 -0.24166701751164893 0.0 1.015099637636632 -0.3053618574302977 0.0 1.053463686861482 -0.21101389180941585 0.0 1.0575859180316802 -0.2620410532161303 0.0 0.9334520706361408 -0.2432880253807004 0.0 0.9210883221996118 -0.14324177562854784 0.0 0.9950491430572939 -0.26765461080553193 0.0 0.7787255448236181 -0.3085754712028226 0.0 0.9958911170508249 -0.21606924091126573 0.0 0.8986964524859873 -0.28976228468139026 0.0 0.9109075347224428 -0.034471869963326254 0.0 0.7091448929811849 -0.2670