<?xml version="1.0"?>
<VTKFile type="UnstructuredGrid"  version="0.1"  >
<UnstructuredGrid>
<Piece  NumberOfPoints="1289" NumberOfCells="2413">
<Points>
<DataArray  type="Float64"  NumberOfComponents="3"  format="ascii">0 0 0  0 0.41 0  2.2 0.41 0  2.2 0 0  0.1 0.1 0  0.1 0.3 0  0.8 0.3 0  0.8 0.1 0  0.25 0.2 0  0.248976 0.210065 0  0.245948 0.219718 0  0.241038 0.228563 0  0.234448 0.23624 0  0.226448 0.242432 0  0.217365 0.246888 0  0.207571 0.249423 0  0.197468 0.249936 0  0.187467 0.248404 0  0.17798 0.24489 0  0.169395 0.239539 0  0.162062 0.232569 0  0.156283 0.224265 0  0.152293 0.214968 0  0.150257 0.205058 0  0.150257 0.194942 0  0.152293 0.185032 0  0.156283 0.175735 0  0.162062 0.167431 0  0.169395 0.160461 0  0.17798 0.15511 0  0.187467 0.151596 0  0.197468 0.150064 0  0.207571 0.150577 0  0.217365 0.153112 0  0.226448 0.157568 0  0.234448 0.16376 0  0.241038 0.171437 0  0.245948 0.180282 0  0.248976 0.189935 0  1.1 0 0  1.1 0.41 0  0.1 0.2 0  0.45 0.1 0  0.45 0.3 0  0.55 0 0  0.275 0.1 0  0.275 0.3 0  0.275 0 0  0.55 0.41 0  0 0.205 0  0.825 0 0  0.825 0.41 0  0.275 0.41 0  0.1 0.15 0  0.1875 0.1 0  0.1 0.25 0  0.1875 0.3 0  0.132322 0.2 0  0.241426 0.253518 0  0.241426 0.146482 0  0.264574 0.17974 0  0.264574 0.22026 0  0.138434 0.187348 0  0.153372 0.150948 0  0.148413 0.164094 0  0.176495 0.136535 0  0.22768 0.143571 0  0.138434 0.212652 0  0.148413 0.235906 0  0.176495 0.263465 0  0.22768 0.256429 0  0.23125 0.3 0  0.24769 0.24094 0  0.23125 0.1 0  0.24769 0.15906 0  0.26253 0.193641 0  0.190482 0.137872 0  0.166753 0.146661 0  0.157737 0.244461 0  0.190482 0.262128 0  0.203107 0.261264 0  0.253635 0.22977 0  0.203107 0.138736 0  0.253635 0.17023 0  0.261028 0.206206 0  0.167707 0.251809 0  0.143629 0.224191 0  0.215302 0.2591 0  0.270465 0.245894 0  0.215302 0.1409 0  0.270465 0.154106 0  0.284052 0.202587 0  0.14375 0.3 0  0.209375 0.3 0  0.225966 0.278501 0  0.209375 0.1 0  0.225966 0.121499 0  0.211613 0.273759 0  0.211613 0.126241 0  0.143629 0.175809 0  0.1 0.175 0  0.133484 0.164832 0  0.144491 0.249539 0  0.1 0.225 0  0.133484 0.235168 0  0.3625 0.3 0  0.25691 0.253381 0  0.25691 0.146619 0  0.277205 0.188698 0  0.184724 0.275712 0  0.237372 0.268285 0  0.184724 0.124288 0  0.237372 0.131715 0  0.197578 0.273149 0  0.193656 0.286994 0  0.197578 0.126851 0  0.193656 0.113006 0  0.122953 0.187671 0  0.118362 0.153758 0  0.155372 0.258107 0  0.122953 0.212329 0  0.118362 0.246242 0  0.276394 0.27264 0  0.276394 0.12736 0  0.280965 0.170013 0  0.253125 0.3 0  0.14375 0.1 0  0.253125 0.1 0  0.269489 0.26014 0  0.269489 0.13986 0  0.303639 0.184297 0  0.165625 0.3 0  0.134742 0.273113 0  0.257831 0.274737 0  0.255279 0.128499 0  0.3625 0.1 0  0.165625 0.1 0  0.162031 0.132368 0  0.134955 0.126405 0  0.149334 0.125568 0  0.142936 0.139597 0  0.12695 0.140259 0  0.242514 0.285501 0  0.242514 0.114499 0  0.1 0.125 0  0.117483 0.12555 0  0.11154 0.139776 0  0.121875 0.1 0  0.109143 0.1125 0  0.126805 0.114 0  0.220313 0.29129 0  0.351562 0.287369 0  0.207222 0.2866 0  0.220312 0.10871 0  0.1375 0 0  0.20625 0 0  0.207222 0.1134 0  0.11722 0.17118 0  0.1 0.1625 0  0.0778409 0.16875 0  0.0862762 0.15625 0  0 0.15375 0  0 0.1025 0  0.11722 0.22882 0  0.1 0.2375 0  0 0.3075 0  0.0862762 0.23125 0  0.0598995 0.222547 0  0.0860223 0.2125 0  0.289584 0.181469 0  0.300267 0.16446 0  0.163832 0.269071 0  0.149597 0.273325 0  0.1 0.275 0  0.268498 0.285953 0  0.31875 0.3 0  0.294154 0.254672 0  0.296875 0.3 0  0.293558 0.271845 0  0.285095 0.286799 0  0.324298 0.264316 0  0.307866 0.263745 0  0.317093 0.234901 0  0.315485 0.281219 0  0.316547 0.250625 0  0.344693 0.243731 0  0.331592 0.251147 0  0.35129 0.270663 0  0.338689 0.263683 0  0.340625 0.3 0  0.249849 0.264383 0  0.265097 0.11422 0  0.284688 0.156136 0  0.242188 0.324017 0  0.0856613 0.2625 0  0.132812 0.0612217 0  0.264062 0.0612217 0  0.198437 0.07598340000000001 0  0.0860223 0.1375 0  0.0794526 0.191089 0  0.285228 0.140397 0  0.298655 0.148737 0  0.31875 0.1 0  0.327335 0.15374 0  0.296875 0.1 0  0.312289 0.155283 0  0.313348 0.135607 0  0.321802 0.173916 0  0.298433 0.134116 0  0.112124 0.2625 0  0.127526 0.259083 0  0.121875 0.3 0  0.0682687 0.241503 0  0.1 0.2875 0  0.117762 0.28125 0  0.107813 0.3 0  0.103906 0.313849 0  0.0778409 0.28125 0  0.1375 0.41 0  0.0862762 0.29375 0  0.08886860000000001 0.24375 0  0.307812 0.338778 0  0.307812 0.292227 0  0.33216 0.279164 0  0.387888 0.266414 0  0.264063 0.31948 0  0.110937 0.07598340000000001 0  0.242188 0.07598340000000001 0  0.319914 0.11839 0  0.340625 0.1 0  0.334448 0.133793 0  0.329687 0.108539 0  0.346259 0.118491 0  0.360334 0.173636 0  0.327539 0.205033 0  0.132812 0.288712 0  0.362436 0.278836 0  0.368105 0.259418 0  0.4125 0.41 0  0.329687 0.324017 0  0.329687 0.292306 0  0.285938 0.318952 0  0.417187 0.338778 0  0.324481 0.14148 0  0.351562 0.106771 0  0.40625 0.1 0  0.341028 0.168342 0  0.319221 0.190479 0  0.335292 0.184501 0  0.305563 0.20794 0  0.220313 0.31948 0  0.132812 0.332772 0  0.0865876 0.311259 0  0.0598995 0.302453 0  0.0906541 0.343255 0  0.353543 0.255837 0  0.36574 0.237633 0  0.405007 0.254279 0  0.275795 0.352123 0  0.4125 0 0  0.35493 0.137394 0  0.366563 0.120618 0  0.35917 0.205246 0  0.198438 0.318952 0  0.0626109 0.263892 0  0.40625 0.3 0  0.354809 0.155936 0  0.386512 0.146872 0  0.373101 0.159939 0  0.384375 0.1 0  0.343394 0.19929 0  0.350682 0.185683 0  0.368101 0.189748 0  0.344016 0.221511 0  0.391108 0.213329 0  0.376279 0.204783 0  0.398843 0.182768 0  0.375804 0.222746 0  0.390665 0.196958 0  0.394004 0.23518 0  0.359883 0.222828 0  0.419908 0.204359 0  0.404243 0.204783 0  0.412615 0.224526 0  0.20625 0.41 0  0.165625 0.325257 0  0.0347982 0.244954 0  0.379558 0.247154 0  0.34165 0.147603 0  0.372264 0.136992 0  0.388988 0.121989 0  0.373437 0.108554 0  0.351562 0.31948 0  0.391367 0.16527 0  0.399572 0.223324 0  0.452011 0.227371 0  0.40877 0.239392 0  0.431491 0.237337 0  0.421224 0.250459 0  0.449619 0.262098 0  0.418865 0.276779 0  0.437063 0.252274 0  0.415673 0.263227 0  0.430988 0.266772 0  0.402767 0.273419 0  0.452967 0.244883 0  0.428125 0.3 0  0.408502 0.286186 0  0.384375 0.3 0  0.392267 0.285807 0  0.465927 0.219339 0  0.43489 0.283846 0  0.376424 0.286289 0  0.625 0.3 0  0.473533 0.205186 0  0.461713 0.255517 0  0.5375 0.3 0  0.465725 0.235405 0  0.44631 0.201425 0  0.471875 0.3 0  0.494307 0.227729 0  0.459448 0.206736 0  0.462294 0.180792 0  0.478933 0.227536 0  0.486793 0.21381 0  0.486322 0.251373 0  0.50065 0.215318 0  0.54005 0.175389 0  0.474633 0.189893 0  0.512916 0.208697 0  0.49531 0.199967 0  0.475889 0.175275 0  0.625 0.1 0  0.459311 0.153933 0  0.513645 0.242704 0  0.392892 0.248539 0  0.374815 0.271913 0  0.365974 0.14871 0  0.395312 0.109184 0  0.417061 0.123981 0  0.483196 0.277003 0  0.381967 0.179632 0  0.429898 0.219374 0  0.433473 0.206165 0  0.43149 0.181038 0  0.444208 0.215487 0  0.472985 0.247309 0  0.49375 0.3 0  0.475579 0.262714 0  0.49916 0.274293 0  0.501175 0.184809 0  0.514164 0.225681 0  0.543648 0.214977 0  0.5341630000000001 0.23481 0  0.527396 0.216171 0  0.5375 0.1 0  0.534548 0.202315 0  0.561545 0.192513 0  0.5494289999999999 0.201221 0  0.570923 0.218346 0  0.412582 0.149833 0  0.489327 0.264745 0  0.502439 0.254775 0  0.462391 0.271166 0  0.496775 0.241732 0  0.5294410000000001 0.268606 0  0.482812 0.291099 0  0.46879 0.285038 0  0.452663 0.284065 0  0.51789 0.257882 0  0.53408 0.252026 0  0.560142 0.243543 0  0.545708 0.243474 0  0.547532 0.229019 0  0.55282 0.265323 0  0.398971 0.153424 0  0.400349 0.135684 0  0.410135 0.168145 0  0.428823 0.161323 0  0.415266 0.183779 0  0.329687 0.0810483 0  0.395312 0.0612217 0  0.373437 0.318952 0  0.439062 0.324017 0  0.561816 0.229354 0  0.585029 0.239287 0  0.431827 0.139854 0  0.446796 0.168929 0  0.351562 0.07598340000000001 0  0.395313 0.318944 0  0.54337 0.150762 0  0.460937 0.31948 0  0.418412 0.137529 0  0.428125 0.1 0  0.442783 0.152332 0  0.450742 0.134294 0  0.373437 0.0805201 0  0.384383 0.342558 0  0.482812 0.318952 0  0.429239 0.127457 0  0.444274 0.117405 0  0.426548 0.113815 0  0.49375 0.1 0  0.488954 0.113984 0  0.457973 0.121842 0  0.471621 0.137346 0  0.515625 0.325257 0  0.48125 0.41 0  0.417187 0.07598340000000001 0  0.496363 0.126778 0  0.479043 0.155715 0  0.439062 0.0805201 0  0.481795 0.126919 0  0.471875 0.1 0  0.489227 0.142159 0  0.515625 0.1 0  0.520062 0.147117 0  0.501244 0.161791 0  0.505431 0.112984 0  0.505344 0.14029 0  0.526563 0.119081 0  0.5181750000000001 0.131908 0  0.539868 0.136937 0  0.460937 0.108383 0  0.474242 0.114415 0  0.460937 0.0810483 0  0.487841 0.167168 0  0.526563 0.0612217 0  0.526563 0.106406 0  0.537619 0.112743 0  0.58125 0.1 0  0.559375 0.1 0  0.482812 0.08105569999999999 0  0.471883 0.0587655 0  0.570312 0.129396 0  0.548437 0.07598340000000001 0  0.504687 0.08105569999999999 0  0.49375 0.0470127 0  0.570312 0.112663 0  0.592798 0.12103 0  0.553986 0.12103 0  0.570312 0.0805201 0  0.48125 0 0  0.114787 0.2 0  0.160769 0.284765 0  0.175816 0.288361 0  0.162602 0.116048 0  0.154687 0.07598340000000001 0  0.176562 0.0805201 0  0.0598995 0.147547 0  0.307812 0.109924 0  0.291279 0.117157 0  0.278491 0.112989 0  0.285937 0.07598340000000001 0  0.307812 0.0805201 0  0.296928 0.196743 0  0.318141 0.218507 0  0.330208 0.227509 0  0.301397 0.225668 0  0.302706 0.241401 0  0.292574 0.21424 0  0.282762 0.230935 0  0.284351 0.244775 0  0.269553 0.23261 0  0.278572 0.217242 0  0.226924 0.342606 0  0.446928 0.185396 0  0.515625 0.3 0  0.504687 0.288879 0  0.515256 0.276534 0  0.529479 0.285328 0  0.58125 0.3 0  0.541969 0.272936 0  0.559375 0.3 0  0.556796 0.282529 0  0.543473 0.287206 0  0.581429 0.267774 0  0.566728 0.271171 0  0.570869 0.255585 0  0.577404 0.283865 0  0.603125 0.3 0  0.597531 0.28035 0  0.570312 0.338778 0  0.592188 0.292492 0  0.603513 0.256094 0  0.614063 0.286265 0  0.610329 0.27064 0  0.632708 0.251285 0  0.657223 0.261594 0  0.618789 0.257807 0  0.614188 0.22987 0  0.630935 0.265614 
[...]
<PointData  Vectors="v"> 
	<DataArray  type="Float64"  Name="v"  NumberOfComponents="3" format="ascii">
0.0 0.0 0.0 0.0 0.0 0.0 0.0 0.0 0.0 0.0 0.0 0.0 0.7990393166271866 -0.19041031525611088 0.0 0.8397494941165011 0.19626420164215486 0.0 1.1336694271763152 -0.11967994036140218 0.0 0.8173022216949776 -0.06987810857318166 0.0 0.0 0.0 0.0 0.0 0.0 0.0 0.0 0.0 0.0 0.0 0.0 0.0 0.0 0.0 0.0 0.0 0.0 0.0 0.0 0.0 0.0 0.0 0.0 0.0 0.0 0.0 0.0 0.0 0.0 0.0 0.0 0.0 0.0 0.0 0.0 0.0 0.0 0.0 0.0 0.0 0.0 0.0 0.0 0.0 0.0 0.0 0.0 0.0 0.0 0.0 0.0 0.0 0.0 0.0 0.0 0.0 0.0 0.0 0.0 0.0 0.0 0.0 0.0 0.0 0.0 0.0 0.0 0.0 0.0 0.0 0.0 0.0 0.0 0.0 0.0 0.0 0.0 0.0 0.0 0.0 0.0 0.0 0.0 0.0 0.0 0.0 0.0 0.0 0.0 0.0 0.0 0.0 0.0 0.0 0.0 0.0 0.0 0.0 0.0 0.765013766839882 -0.006790796855036949 0.0 1.1324913991293626 0.06631081155955958 0.0 1.2774028652841525 -0.19727246770616066 0.0 0.0 0.0 0.0 1.302409631525248 -0.05522562213795461 0.0 1.3118770797038999 0.09864254944269313 0.0 0.0 0.0 0.0 0.0 0.0 0.0 1.0 0.0 0.0 0.0 0.0 0.0 0.0 0.0 0.0 0.0 0.0 0.0 0.8486560844739678 -0.23254175152576032 0.0 1.1590334336138444 -0.2971357525534338 0.0 0.8668563861982269 0.22079063542371316 0.0 1.1655727203918613 0.3098258450873613 0.0 0.4322501444428132 -0.010038867566611265 0.0 0.16004790290144696 0.025443369770712376 0.0 0.18670452765359644 -0.021537804559302477 0.0 -0.04824022159012366 -0.07867677000850372 0.0 -0.046942949819285665 0.04994255049556886 0.0 0.339276307122115 -0.28819316930779454 0.0 0.8777973721364535 -0.6756490939567023 0.0 0.6545765106333755 -0.6991664566339321 0.0 1.2511188593247247 -0.6033686474845906 0.0 0.32118474463700447 0.006959893059956185 0.0 0.33308090413372765 0.2638909291877367 0.0 0.6502022734507059 0.6680830505653131 0.0 1.216648143142215 0.602042604979781 0.0 0.2839183534447259 0.001652446170855502 0.0 1.280143117477058 0.1969486386431933 0.0 -0.021454030739530963 0.04563977382615837 0.0 1.2762307681247023 -0.16386854962121467 0.0 -0.013076095598889075 -0.0602554783139367 0.0 -0.0377527682441327 -0.04482493550215731 0.0 1.2396718152937456 -0.4000001187953862 0.0 1.1362386497214703 -0.7340680033918884 0.0 0.8675011158261334 0.7738859212863263 0.0 1.22388163854244 0.3976966107429876 0.0 0.9008662845775507 0.16443619753384653 0.0 -0.03524917326701618 0.05432915890712906 0.0 0.9372375939282389 -0.16021918967333135 0.0 -0.03991183552559141 -0.0828336205148621 0.0 -0.029661802725488674 0.003070465096174357 0.0 1.0563345897781222 0.7251301776805693 0.0 0.4459334723340497 0.5269603957672105 0.0 0.5288696000148477 0.032567070253196405 0.0 0.0646141915055505 0.042145133105275075 0.0 0.5655230119660188 -0.028381916453627656 0.0 0.10182835329847624 -0.055626573355984865 0.0 -0.1118091251579231 0.006050728758240726 0.0 0.966511122082151 0.29678184850362943 0.0 1.2493755962259525 0.2483566745317822 0.0 1.2889354967543463 0.20630310088908166 0.0 1.2300670382903964 -0.23579308183281497 0.0 1.3070568984118764 -0.18795652282011066 0.0 1.297541056295984 0.2559825375907954 0.0 1.3223183147036484 -0.24014543684474104 0.0 0.452414739064868 -0.5558963727070999 0.0 0.8068691011892963 -0.14344484975550512 0.0 0.6816462608073462 -0.42378237914903644 0.0 0.8884269091032816 0.5880786407012177 0.0 0.802540551872331 0.1359173471071398 0.0 0.6825548628659164 0.41362282547229373 0.0 1.3056642920749058 -0.035338622196866905 0.0 0.18091217564895032 0.027486469217697818 0.0 0.2321886741567484 -0.028160638649907564 0.0 -0.08662069107995407 -0.04331009480829792 0.0 1.2977808478269282 0.42857371695650076 0.0 0.8650835355145919 0.06842560368947871 0.0 1.3052505590155667 -0.43033356159911784 0.0 0.9241565844878689 -0.054392424845710295 0.0 1.3273623464962672 0.36118562548033845 0.0 1.2666053000612443 0.34698940185913174 0.0 1.3387299788937987 -0.35262915985435067 0.0 1.2676090768857768 -0.32129550440546284 0.0 0.5895109273716524 -0.1665014597286877 0.0 0.8053878428714313 -0.3333351063781319 0.0 1.0279080940735117 0.5938334820800892 0.0 0.5956722913547798 0.14433095693428735 0.0 0.8174896884050438 0.3234356972146052 0.0 0.8529766462304805 0.03859569052349731 0.0 0.9477769496817566 -0.012854280639189532 0.0 -0.032298087600498036 -0.06263618935604019 0.0 1.3067640881239628 0.1397552215120319 0.0 0.9372452899462685 -0.30496984049348114 0.0 1.2939325688171908 -0.10350484331099029 0.0 0.3912888991048948 0.023514286067822937 0.0 0.4785774281698417 -0.01382126112239379 0.0 -0.12825013956332248 -0.008435807336974799 0.0 1.0593922772795588 0.3227544338456675 0.0 0.950078849110438 0.3772875303933565 0.0 1.0141970777078673 0.07199378423304538 0.0 0.9572936077602444 -0.03999630080709829 0.0 1.2351988085526944 0.08738763850552052 0.0 1.037216800159439 -0.31564182708201843 0.0 1.1038428317379476 -0.5586788253355964 0.0 0.9437370415298757 -0.3810546079023022 0.0 1.0165069440798007 -0.4251476800800879 0.0 0.9514581357525138 -0.5403226539999734 0.0 0.8773594799511611 -0.40426088961549445 0.0 1.304027762810047 0.16040706454174775 0.0 1.3127918810478811 -0.1340716851256208 0.0 0.8579658454971499 -0.23269143508257786 0.0 0.8876063519188712 -0.30473551427223194 0.0 0.8609605927027683 -0.29734571615058053 0.0 0.8559312081178581 -0.2462513145283732 0.0 0.8596423836618988 -0.24640285570091133 0.0 0.9049341015433124 -0.30993368572132235 0.0 1.3124286050615697 0.23104624607392732 0.0 1.17951910189416 -0.015769408380344994 0.0 1.3232274719269126 0.2907393969876667 0.0 1.3126302553213745 -0.1994214857430219 0.0 0.0 0.0 0.0 0.0 0.0 0.0 1.3171738555878338 -0.2689622865279671 0.0 0.7212556553840899 -0.27176591294043867 0.0 0.8258829619570276 -0.21307956339153777 0.0 0.8743135698659572 -0.11334955490323177 0.0 0.8666011229969323 -0.1652863808323826 0.0 0.9375 0.0 0.0 0.7500000000000001 0.0 0.0 0.7266404731826307 0.258660423465 0.0 0.8272453524068989 0.19265441074309586 0.0 0.7499999999999999 0.0 0.0 0.872029959501092 0.12092717652956493 0.0 0.9299527915630785 0.037912874549103144 0.0 0.8508054076594026 0.03928066735694853 0.0 -0.09539843607717445 -0.03789640131577707 0.0 0.02298738796773482 -0.026702514527072674 0.0 1.1345880281371346 0.5360479569955997 0.0 1.0299580031277658 0.45680511091081877 0.0 0.8825426154939535 0.23498431340301143 0.0 1.240393138034121 0.09077752425869795 0.0 1.3048146330954633 0.02933777305773016 0.0 0.26641370641590895 0.025526687007888224 0.0 1.314016643542887 0.06107948596959375 0.0 0.7933091056991299 0.022100612508199103 0.0 1.2183534474147697 0.06283916785703167 0.0 0.5590997819826159 0.015483528666872942 0.0 0.5211850744724582 0.01784448109290784 0.0 0.005078609608305777 0.06323010605421527 0.0 1.054680044915862 0.017646979359559677 0.0 0.22165862852117785 0.03941924985129211 0.0 0.1635777318195225 0.06842016823116288 0.0 0.26100352271531935 0.04500502043668662 0.0 0.7809934854841968 0.001002494645949047 0.0 0.5645248278269926 0.018215653443622883 0.0 1.3078749362260997 -0.004319541422103383 0.0 0.592619346561089 0.028748964890458906 0.0 1.2795360206531838 -0.06894597364640216 0.0 0.11326760123099952 -0.04147960500443699 0.0 1.1503506542031838 0.11935594944271861 0.0 0.8844086362491792 0.1712376366549658 0.0 0.6979593161444501 -0.15565338899432962 0.0 1.037585526661705 -0.04538890898014304 0.0 1.0194279720317174 -0.17860121796921966 0.0 0.8677172732876482 -0.18187582452201997 0.0 0.878097339238721 -0.030001860848496636 0.0 0.4822264678659881 -0.0057098711538633076 0.0 0.28279603936342623 -0.004847342222931778 0.0 1.2834896866558094 0.03525222266694608 0.0 0.22486185475636297 0.03986926664437944 0.0 1.302537979238521 -0.009022272659943474 0.0 0.1727782398266108 0.008206457405620019 0.0 0.6775427982039272 0.046558030171460485 0.0 -0.07472406545831578 0.02076089292350192 0.0 0.7040461657946429 0.023572476759044815 0.0 0.8827050734197752 0.2868913326698988 0.0 0.8858630610577108 0.4006646978203917 0.0 0.8845646548462602 0.25492594079094744 0.0 0.9136340003923239 0.10345866612732349 0.0 0.8657942863006537 0.2120527339478216 0.0 0.9072879350539523 0.2906662242714696 0.0 0.856682372307355 0.22071389085624607 0.0 0.8000050611950628 0.17161383617255074 0.0 0.8673062330759856 0.15304461759715066 0.0 0.0 0.0 0.0 0.8411772501845703 0.16703062222103596 0.0 0.8729952731145804 0.16347404623264447 0.0 1.1256183449562136 0.01909751445819812 0.0 1.2612683753069873 0.037295032059783906 0.0 0.9956976490385258 0.004505709217278037 0.0 0.777740233747925 -0.023394744319561605 0.0 1.214030662661526 0.09495152537525754 0.0 0.7177335321785218 -0.16518373113854157 0.0 1.1219944671823467 -0.09949344830948073 0.0 1.1396490483249901 0.05264774037517976 0.0 1.266534256918548 0.06736171115995453 0.0 0.7560086156250395 0.0863255673935916 0.0 1.2539821794875035 0.06272410606944144 0.0 1.1168880387803315 0.09679976326173831 0.0 -0.08110347797047196 0.10563375574520838 0.0 -0.19324760210396777 0.06570367742010523 0.0 0.9479789977470501 0.32445411100267496 0.0 1.0175961787354848 -0.024114668680659666 0.0 0.5382551488095646 0.023722091612496773 0.0 0.0 0.0 0.0 1.2347207557521163 0.0038188741814826712 0.0 1.2530296672895889 0.007095456238398607 0.0 1.2358020074581855 0.06737496093865027 0.0 1.1182471147264303 -0.1031585624553083 0.0 0.5189875050322448 0.052114406031236425 0.0 1.2335049350606178 0.09065383162214785 0.0 1.1741949190740042 0.09568483698218035 0.0 -0.012355994857590022 0.06388412528934985 0.0 -0.17472509003806397 0.02902190982018879 0.0 -0.16582169217904588 0.05503037414157162 0.0 -0.15572002946263427 0.037749709625831414 0.0 1.1500703322072938 0.16826968485783522 0.0 0.771197702413538 0.1823028149760236 0.0 0.7765899597566978 0.14465759220608848 0.0 0.7853337018977269 0.10029154529166369 0.0 0.6167165955175204 0.10276414495563936 0.0 0.41356744840930204 0.038983555108428714 0.0 0.11695248129337675 0.09163370424933677 0.0 0.5680262473022559 -0.006709046860580211 0.0 0.9933999870599042 0.04638914618350706 0.0 0.0 0.0 0.0 0.6714571485563163 0.11544972651066931 0.0 1.058331816980904 0.12323781236409503 0.0 -0.21677798532248374 0.11806468824716158 0.0 1.077541071658261 0.22293635556302466 0.0 0.9008244784014133 0.10581821184322679 0.0 1.3144348783661335 -0.11528836037851062 0.0 0.20950526022257898 0.09818457388536717 0.0 0.43554020817500744 0.1448935628121666 0.0 0.138672540867629 0.12886113014919467 0.0 1.2067360159236076 0.09761682305447975 0.0 -0.21740156018447765 0.08602141375159618 0.0 -0.18475603829951864 0.08925266188540976 0.0 -0.21535364583987388 0.12526431165049873 0.0 -0.11325038514162908 0.09647391624554304 0.0 -0.15370662499596022 0.13802594163134438 0.0 -0.22086509296587323 0.13819292237391856 0.0 -0.18062466456788367 0.15210108180765972 0.0 -0.07139453616724929 0.12142667219896576 0.0 -0.23498281959804582 0.1478260369543903 0.0 0.15539006488319504 0.08654101848719219 0.0 -0.08756459564536352 0.11199786863834152 0.0 -0.18721755389730999 0.1231068699484499 0.0 -0.20457506009082496 0.1423728417444957 0.0 0.03523271424234529 0.0909286437605584 0.0 0.0 0.0 0.0 0.9349280375129051 0.22889963154739315 0.0 0.9516594424404189 0.03659609991463168 0.0 0.32160804890143363 0.06012393141924538 0.0 0.38444032357741487 0.0789377631087593 0.0 0.6861715113029703 0.13581658447028627 0.0 1.0095368821612876 0.13361158327706602 0.0 1.1924079196357051 0.11072083054288072 0.0 1.2683267503045241 -0.0207386063079266 0.0 0.04345268553576535 0.14747278464950192 0.0 -0.01715998688665124 0.11429252135541164 0.0 0.23174616689207553 -0.05440242728110785 0.0 0.2828473976165815 0.04669654870958949 0.0 0.3352234511822317 -0.011204252498842564 0.0 0.5585485998343541 -0.03418043914012068 0.0 0.9168076221866347 -0.18099755537489406 0.0 1.101217533040071 -0.1264596783777249 0.0 0.668376646691447 -0.09859554397473098 0.0 0.8137071717011906 -0.07224146486024245 0.0 0.9472023119957668 -0.13196935266032447 0.0 0.9929259445571265 -0.07629864135838511 0.0 0.5812560903132441 -0.12842642108883284 0.0 1.302133680014754 -0.15560982592734102 0.0 1.2221299290807888 -0.11702166434773427 0.0 1.3136666262529766 -0.07114625006994438 0.0 1.1993355755226691 -0.07826698927420311 0.0 0.13999976978958129 -0.08465201021328364 0.0 1.2271655567376223 -0.18196546494873916 0.0 1.1858034637555521 -0.053038796825698356 0.0 0.9521545664971198 0.012003090941446885 0.0 -0.04185112592548171 -0.07093818971422597 0.0 0.8275508060531175 -0.20341148543827947 0.0 1.072480385816385 -0.1878850597371404 0.0 0.4396689784154679 -0.14547233465770493 0.0 -0.15424729048003788 0.05288505267747649 0.0 1.235210056297961 -0.2238486662319177 0.0 0.3943451210148714 -0.231287875259299 0.0 -0.06490082698527642 -0.013850366504852479 0.0 -0.13980993198390212 0.02491100744281861 0.0 0.3373655749394713 -0.17707402270740033 0.0 0.12372668788081186 -0.15572802760627394 0.0 0.8169161116887652 -0.2665526847772189 0.0 0.19373418282534283 -0.2135968264514083 0.0 0.1258233928705203 -0.19994517041776758 0.0 -0.14283848539708474 -0.03512713956014793 0.0 0.12619666497837928 -0.23637086534319515 0.0 -0.02886575181030836 -0.15128688258189577 0.0 -0.07329684428629986 -0.01734746118560056 0.0 1.1486072212037386 0.20406838525982515 0.0 0.26670221218514906 0.06824104507937022 0.0 0.7041252082021494 -0.3004583938359157 0.0 0.3989504298726757 0.040485099602635646 0.0 0.8685582733289257 -0.0206720267678328 0.0 0.3822940785056541 0.12450141908632295 0.0 1.1527348455124198 0.11384010039458949 0.0 0.9385124152872836 0.1223824055160201 0.0 1.1567221944123762 -0.27548546996675916 0.0 -0.150124848127118 0.1401275988469566 0.0 0.011011726021235783 0.057730945334451916 0.0 -0.14551553863168798 0.08611674637393958 0.0 -0.1624283684972092 0.11879979859769095 0.0 -0.0004028151336817596 0.0237031483407821 0.0 0.704413142681877 -0.2169703150977277 0.0 1.183191587293773 -0.22880655725148866 0.0 0.988409264029737 -0.26063163342144763 0.0 1.1182725997485932 -0.28906512692872494 0.0 -0.07348559245536582 -0.13242260502740383 0.0 0.4053313790680382 -0.27405855735999285 0.0 0.25845822973332083 -0.29727812190495784 0.0 0.5857403788933561 -0.29690524434383075 0.0 0.2660028924157447 -0.28230164720996587 0.0 1.1730483901671607 0.07187865120957147 0.0 0.08340015949303145 -0.27324465857672264 0.0 0.10292581645402978 -0.27545169880863396 0.0 0.10031869860113644 -0.29383692466636113 0.0 0.2880163996841888 -0.29038186255448967 0.0 0.3618603229567121 0.1456064908695969 0.0 1.0270492258503319 -0.28944105056531705 0.0 0.8908218172331239 -0.3007803397177855 0.0 1.0971101915842956 -0.2395365492141622 0.0 0.6639607753273657 -0.2695881755278888 0.0 1.022953345156617 -0.2756757564339517 0.0 1.215393064288818 -0.2544093150290299 0.0 1.225188416909204 -0.25099217994129164 0.0 1.2291795144427504 -0.22140566367075087 0.0 0.9329731395905629 -0.30235033035386316 0.0 0.8437262310226605 -0.29092710382428166 0.0 0.6930945729696643 -0.25483849917896606 0.0 0.7142535559779859 -0.28317508893789606 0.0 0.4858693746694823 -0.29353296832222064 0.0 0.9489374895162958 -0.23417428196582757 0.0 0.27984213126573815 0.1494598026485014 0.0 0.708100401566613 0.14434599471211612 0.0 -0.0034467315587999228 0.14882231175193264 0.0 0.11291685678057262 0.1268637728556207 0.0 -0.18768110164270527 0.14227569975455912 0.0 1.200885651078556 0.03979529785831057 0.0 1.0283973071813008 0.06263434687346951 0.0 1.2745690549916795 -0.055467030237612056 0.0 1.1933353075309583 -0.1533270229449398 0.0 0.4754405254650761 -0.28114018336021906 0.0 0.5660792734424799 -0.21447498067480086 0.0 0.5860950702693504 0.11920875023097664 0.0 -0.012738259554892817 0.08948739398335608 0.0 1.1551763635154706 0.05818187683068354 0.0 1.2671463309118283 -0.08937863165026871 0.0 0.5564032407273338 -0.07169940353076396 0.0 1.184827080799135 -0.18114507939475138 0.0 0.6509693810419869 0.1315386625852495 0.0 1.1479972670554992 0.08347757439317265 0.0 0.2951621006731404 0.1022248382455952 0.0 0.7030944000488734 0.08537796347745716 0.0 1.1649469661161225 0.07287762875711772 0.0 1.1147403036229704 -0.06488392826740233 0.0 1.142470811986199 -0.19136588677301705 0.0 0.8595735638173733 0.11119333897417599 0.0 1.0110591148262627 0.0832973775701628 0.0 1.0714303928501792 0.09962462122734221 0.0 1.1382664632544799 0.04477691311526255 0.0 1.05028929282563 0.03665401390219164 0.0 0.9396014198824765 0.0665948927298177 0.0 0.6325244565905643 0.04480274682999288 0.0 1.0235626908561142 -0.16274903008144112 0.0 0.0 0.0 0.0 1.1060950606831041 0.0694929062172627 0.0 0.8713665238014286 0.019525545609218074 0.0 0.2472494969733168 0.01104095408977731 0.0 1.1123393059410274 0.06379304486085878 0.0 0.8544901723886291 0.03404485309542172 0.0 1.1297872535470475 0.05092061356633545 0.0 0.5475044665332118 0.006847904429231289 0.0 1.1553779425249324 0.051323317507039785 0.0 0.5248381877517356 -0.05158258085159814 0.0 0.17715769899751957 -0.06666945647436355 0.0 1.075589001599383 0.03304700348187415 0.0 0.6213533861502853 -0.013287985546731643 0.0 1.0431405557563467 0.03163723372732537 0.0 0.8215042430058879 -0.002900317261779472 0.0 0.8013510417958543 -0.009965225853132975 0.0 1.0936923994606231 0.05889124783656 0.0 1.0385743797383842 0.04799154668106015 0.0 1.106389227205611 0.056500084980559216 0.0 0.05519041862595137 -0.03913916067557401 0.0 0.9658805786400757 0.0633223897322268 0.0 1.1472303567408275 0.052129825620037124 0.0 1.12762573779213 0.05547511178589575 0.0 1.190779240597074 0.14299283743271973 0.0 1.1886768050891001 0.10434056220108369 0.0 1.1060164985804246 0.0516931523965977 0.0 0.9715761589286308 0.04780863386470913 0.0 1.041514344810016 0.07502209422639547 0.0 1.0805365158802516 0.08992544671644301 0.0 1.1114140152076755 0.05463720210721346 0.0 0.8329205466926615 0.04342508460136253 0.0 1.1804083943523782 0.11589836665387163 0.0 1.1744538235451452 0.15684371649558418 0.0 1.0885069968636034 0.06290397108150127 0.0 1.1002742479924614 0.11985547775048405 0.0 0.0 0.0 0.0 0.6488595137722805 -0.011265620552725602 0.0 1.0878225894112645 0.40883174848485027 0.0 1.1794271198259758 0.38646703132247656 0.0 1.103086570821893 -0.40144501968099694 0.0 0.8619310323014409 -0.20537283032139567 0.0 0.9737552277904529 -0.22129014533510422 0.0 0.8942516930020756 -0.0860754229941154 0.0 1.272822127327126 0.01912512156692979 0.0 1.1971821114929782 -0.0017640772854499917 0.0 1.2684266516402087 -0.034989235911532614 0.0 1.1665180216623727 -0.018362248971900762 0.0 1.2020672340447356 0.013025366787245337 0.0 -0.14534270901885568 0.00427425626935121 0.0 -0.1286033298365609 0.06483873920296584 0.0 -0.059209519786678655 0.07842057923290402 0.0 -0.07450688973945872 0.05570599813026725 0.0 0.06138658748340757 0.050236353923900835 0.0 -0.11490176023261839 0.03841476150702377 0.0 -0.03996932688014552 0.055625870179168695 0.0 0.07728381478383073 0.04366106784805689 0.0 -0.03519401951661808 0.059288837048314995 0.0 -0.08044645888841799 0.042357577734501946 0.0 0.9869158543822049 0.12134154793391934 0.0 -0.1825713417533502 0.07789589699303592 0.0 1.126670514084348 -0.2157635073221601 0.0 1.1626460137277808 -0.2589187000192474 0.0 1.099943057426038 -0.2762720071674314 0.0 1.0963915985830173 -0.23815686557875893 0.0 0.9903298860701264 -0.08865698479946191 0.0 1.0220412081873436 -0.24176880501063192 0.0 1.0234156958440903 -0.13930691036203752 0.0 1.026052464031378 -0.18408172784181365 0.0 1.0627192414563134 -0.20396402336088879 0.0 0.9035853181128188 -0.14466311250331976 0.0 0.9597234353871199 -0.1803566785207403 0.0 0.8205503631688505 -0.20566345324741253 0.0 0.9871979041516078 -0.1274485325485802 0.0 0.9631128657080646 -0.0366103447609616 0.0 0.9403263624783229 -0.07454598016158819 0.0 0.8393203078047041 -0.06460685348949793 0.0 0.976357620995805 -0.06938161942725757 0.0 0.7327157872866639 -0.11789565787100871 0.0 0.9392001169358535 -0.021593769224129672 0.0 0.8590385006106591 -0.05847039601882445 0.0 0.5550541364355808 -0.07656750608543512 0.0 0.6150903966784798 0.010207396611778817 0.0 0.6994804392596427 -0.07781982139959198 0.0 0.3332487903503316 -0.19080487329509938 0.0 0.7531587679975454 -0.02600798506768572 0.0 0.4857942693875523 -0.13278095105501708 0.0 0.9581101564158234 0.06532758889693802 0.0 0.292550193451715 -0.08513951400451744 0.0 1.002