<?xml version="1.0"?>
<VTKFile type="UnstructuredGrid"  version="0.1"  >
<UnstructuredGrid>
<Piece  NumberOfPoints="1289" NumberOfCells="2413">
<Points>
<DataArray  type="Float64"  NumberOfComponents="3"  format="ascii">0 0 0  0 0.41 0  2.2 0.41 0  2.2 0 0  0.1 0.1 0  0.1 0.3 0  0.8 0.3 0  0.8 0.1 0  0.25 0.2 0  0.248976 0.210065 0  0.245948 0.219718 0  0.241038 0.228563 0  0.234448 0.23624 0  0.226448 0.242432 0  0.217365 0.246888 0  0.207571 0.249423 0  0.197468 0.249936 0  0.187467 0.248404 0  0.17798 0.24489 0  0.169395 0.239539 0  0.162062 0.232569 0  0.156283 0.224265 0  0.152293 0.214968 0  0.150257 0.205058 0  0.150257 0.194942 0  0.152293 0.185032 0  0.156283 0.175735 0  0.162062 0.167431 0  0.169395 0.160461 0  0.17798 0.15511 0  0.187467 0.151596 0  0.197468 0.150064 0  0.207571 0.150577 0  0.217365 0.153112 0  0.226448 0.157568 0  0.234448 0.16376 0  0.241038 0.171437 0  0.245948 0.180282 0  0.248976 0.189935 0  1.1 0 0  1.1 0.41 0  0.1 0.2 0  0.45 0.1 0  0.45 0.3 0  0.55 0 0  0.275 0.1 0  0.275 0.3 0  0.275 0 0  0.55 0.41 0  0 0.205 0  0.825 0 0  0.825 0.41 0  0.275 0.41 0  0.1 0.15 0  0.1875 0.1 0  0.1 0.25 0  0.1875 0.3 0  0.132322 0.2 0  0.241426 0.253518 0  0.241426 0.146482 0  0.264574 0.17974 0  0.264574 0.22026 0  0.138434 0.187348 0  0.153372 0.150948 0  0.148413 0.164094 0  0.176495 0.136535 0  0.22768 0.143571 0  0.138434 0.212652 0  0.148413 0.235906 0  0.176495 0.263465 0  0.22768 0.256429 0  0.23125 0.3 0  0.24769 0.24094 0  0.23125 0.1 0  0.24769 0.15906 0  0.26253 0.193641 0  0.190482 0.137872 0  0.166753 0.146661 0  0.157737 0.244461 0  0.190482 0.262128 0  0.203107 0.261264 0  0.253635 0.22977 0  0.203107 0.138736 0  0.253635 0.17023 0  0.261028 0.206206 0  0.167707 0.251809 0  0.143629 0.224191 0  0.215302 0.2591 0  0.270465 0.245894 0  0.215302 0.1409 0  0.270465 0.154106 0  0.284052 0.202587 0  0.14375 0.3 0  0.209375 0.3 0  0.225966 0.278501 0  0.209375 0.1 0  0.225966 0.121499 0  0.211613 0.273759 0  0.211613 0.126241 0  0.143629 0.175809 0  0.1 0.175 0  0.133484 0.164832 0  0.144491 0.249539 0  0.1 0.225 0  0.133484 0.235168 0  0.3625 0.3 0  0.25691 0.253381 0  0.25691 0.146619 0  0.277205 0.188698 0  0.184724 0.275712 0  0.237372 0.268285 0  0.184724 0.124288 0  0.237372 0.131715 0  0.197578 0.273149 0  0.193656 0.286994 0  0.197578 0.126851 0  0.193656 0.113006 0  0.122953 0.187671 0  0.118362 0.153758 0  0.155372 0.258107 0  0.122953 0.212329 0  0.118362 0.246242 0  0.276394 0.27264 0  0.276394 0.12736 0  0.280965 0.170013 0  0.253125 0.3 0  0.14375 0.1 0  0.253125 0.1 0  0.269489 0.26014 0  0.269489 0.13986 0  0.303639 0.184297 0  0.165625 0.3 0  0.134742 0.273113 0  0.257831 0.274737 0  0.255279 0.128499 0  0.3625 0.1 0  0.165625 0.1 0  0.162031 0.132368 0  0.134955 0.126405 0  0.149334 0.125568 0  0.142936 0.139597 0  0.12695 0.140259 0  0.242514 0.285501 0  0.242514 0.114499 0  0.1 0.125 0  0.117483 0.12555 0  0.11154 0.139776 0  0.121875 0.1 0  0.109143 0.1125 0  0.126805 0.114 0  0.220313 0.29129 0  0.351562 0.287369 0  0.207222 0.2866 0  0.220312 0.10871 0  0.1375 0 0  0.20625 0 0  0.207222 0.1134 0  0.11722 0.17118 0  0.1 0.1625 0  0.0778409 0.16875 0  0.0862762 0.15625 0  0 0.15375 0  0 0.1025 0  0.11722 0.22882 0  0.1 0.2375 0  0 0.3075 0  0.0862762 0.23125 0  0.0598995 0.222547 0  0.0860223 0.2125 0  0.289584 0.181469 0  0.300267 0.16446 0  0.163832 0.269071 0  0.149597 0.273325 0  0.1 0.275 0  0.268498 0.285953 0  0.31875 0.3 0  0.294154 0.254672 0  0.296875 0.3 0  0.293558 0.271845 0  0.285095 0.286799 0  0.324298 0.264316 0  0.307866 0.263745 0  0.317093 0.234901 0  0.315485 0.281219 0  0.316547 0.250625 0  0.344693 0.243731 0  0.331592 0.251147 0  0.35129 0.270663 0  0.338689 0.263683 0  0.340625 0.3 0  0.249849 0.264383 0  0.265097 0.11422 0  0.284688 0.156136 0  0.242188 0.324017 0  0.0856613 0.2625 0  0.132812 0.0612217 0  0.264062 0.0612217 0  0.198437 0.07598340000000001 0  0.0860223 0.1375 0  0.0794526 0.191089 0  0.285228 0.140397 0  0.298655 0.148737 0  0.31875 0.1 0  0.327335 0.15374 0  0.296875 0.1 0  0.312289 0.155283 0  0.313348 0.135607 0  0.321802 0.173916 0  0.298433 0.134116 0  0.112124 0.2625 0  0.127526 0.259083 0  0.121875 0.3 0  0.0682687 0.241503 0  0.1 0.2875 0  0.117762 0.28125 0  0.107813 0.3 0  0.103906 0.313849 0  0.0778409 0.28125 0  0.1375 0.41 0  0.0862762 0.29375 0  0.08886860000000001 0.24375 0  0.307812 0.338778 0  0.307812 0.292227 0  0.33216 0.279164 0  0.387888 0.266414 0  0.264063 0.31948 0  0.110937 0.07598340000000001 0  0.242188 0.07598340000000001 0  0.319914 0.11839 0  0.340625 0.1 0  0.334448 0.133793 0  0.329687 0.108539 0  0.346259 0.118491 0  0.360334 0.173636 0  0.327539 0.205033 0  0.132812 0.288712 0  0.362436 0.278836 0  0.368105 0.259418 0  0.4125 0.41 0  0.329687 0.324017 0  0.329687 0.292306 0  0.285938 0.318952 0  0.417187 0.338778 0  0.324481 0.14148 0  0.351562 0.106771 0  0.40625 0.1 0  0.341028 0.168342 0  0.319221 0.190479 0  0.335292 0.184501 0  0.305563 0.20794 0  0.220313 0.31948 0  0.132812 0.332772 0  0.0865876 0.311259 0  0.0598995 0.302453 0  0.0906541 0.343255 0  0.353543 0.255837 0  0.36574 0.237633 0  0.405007 0.254279 0  0.275795 0.352123 0  0.4125 0 0  0.35493 0.137394 0  0.366563 0.120618 0  0.35917 0.205246 0  0.198438 0.318952 0  0.0626109 0.263892 0  0.40625 0.3 0  0.354809 0.155936 0  0.386512 0.146872 0  0.373101 0.159939 0  0.384375 0.1 0  0.343394 0.19929 0  0.350682 0.185683 0  0.368101 0.189748 0  0.344016 0.221511 0  0.391108 0.213329 0  0.376279 0.204783 0  0.398843 0.182768 0  0.375804 0.222746 0  0.390665 0.196958 0  0.394004 0.23518 0  0.359883 0.222828 0  0.419908 0.204359 0  0.404243 0.204783 0  0.412615 0.224526 0  0.20625 0.41 0  0.165625 0.325257 0  0.0347982 0.244954 0  0.379558 0.247154 0  0.34165 0.147603 0  0.372264 0.136992 0  0.388988 0.121989 0  0.373437 0.108554 0  0.351562 0.31948 0  0.391367 0.16527 0  0.399572 0.223324 0  0.452011 0.227371 0  0.40877 0.239392 0  0.431491 0.237337 0  0.421224 0.250459 0  0.449619 0.262098 0  0.418865 0.276779 0  0.437063 0.252274 0  0.415673 0.263227 0  0.430988 0.266772 0  0.402767 0.273419 0  0.452967 0.244883 0  0.428125 0.3 0  0.408502 0.286186 0  0.384375 0.3 0  0.392267 0.285807 0  0.465927 0.219339 0  0.43489 0.283846 0  0.376424 0.286289 0  0.625 0.3 0  0.473533 0.205186 0  0.461713 0.255517 0  0.5375 0.3 0  0.465725 0.235405 0  0.44631 0.201425 0  0.471875 0.3 0  0.494307 0.227729 0  0.459448 0.206736 0  0.462294 0.180792 0  0.478933 0.227536 0  0.486793 0.21381 0  0.486322 0.251373 0  0.50065 0.215318 0  0.54005 0.175389 0  0.474633 0.189893 0  0.512916 0.208697 0  0.49531 0.199967 0  0.475889 0.175275 0  0.625 0.1 0  0.459311 0.153933 0  0.513645 0.242704 0  0.392892 0.248539 0  0.374815 0.271913 0  0.365974 0.14871 0  0.395312 0.109184 0  0.417061 0.123981 0  0.483196 0.277003 0  0.381967 0.179632 0  0.429898 0.219374 0  0.433473 0.206165 0  0.43149 0.181038 0  0.444208 0.215487 0  0.472985 0.247309 0  0.49375 0.3 0  0.475579 0.262714 0  0.49916 0.274293 0  0.501175 0.184809 0  0.514164 0.225681 0  0.543648 0.214977 0  0.5341630000000001 0.23481 0  0.527396 0.216171 0  0.5375 0.1 0  0.534548 0.202315 0  0.561545 0.192513 0  0.5494289999999999 0.201221 0  0.570923 0.218346 0  0.412582 0.149833 0  0.489327 0.264745 0  0.502439 0.254775 0  0.462391 0.271166 0  0.496775 0.241732 0  0.5294410000000001 0.268606 0  0.482812 0.291099 0  0.46879 0.285038 0  0.452663 0.284065 0  0.51789 0.257882 0  0.53408 0.252026 0  0.560142 0.243543 0  0.545708 0.243474 0  0.547532 0.229019 0  0.55282 0.265323 0  0.398971 0.153424 0  0.400349 0.135684 0  0.410135 0.168145 0  0.428823 0.161323 0  0.415266 0.183779 0  0.329687 0.0810483 0  0.395312 0.0612217 0  0.373437 0.318952 0  0.439062 0.324017 0  0.561816 0.229354 0  0.585029 0.239287 0  0.431827 0.139854 0  0.446796 0.168929 0  0.351562 0.07598340000000001 0  0.395313 0.318944 0  0.54337 0.150762 0  0.460937 0.31948 0  0.418412 0.137529 0  0.428125 0.1 0  0.442783 0.152332 0  0.450742 0.134294 0  0.373437 0.0805201 0  0.384383 0.342558 0  0.482812 0.318952 0  0.429239 0.127457 0  0.444274 0.117405 0  0.426548 0.113815 0  0.49375 0.1 0  0.488954 0.113984 0  0.457973 0.121842 0  0.471621 0.137346 0  0.515625 0.325257 0  0.48125 0.41 0  0.417187 0.07598340000000001 0  0.496363 0.126778 0  0.479043 0.155715 0  0.439062 0.0805201 0  0.481795 0.126919 0  0.471875 0.1 0  0.489227 0.142159 0  0.515625 0.1 0  0.520062 0.147117 0  0.501244 0.161791 0  0.505431 0.112984 0  0.505344 0.14029 0  0.526563 0.119081 0  0.5181750000000001 0.131908 0  0.539868 0.136937 0  0.460937 0.108383 0  0.474242 0.114415 0  0.460937 0.0810483 0  0.487841 0.167168 0  0.526563 0.0612217 0  0.526563 0.106406 0  0.537619 0.112743 0  0.58125 0.1 0  0.559375 0.1 0  0.482812 0.08105569999999999 0  0.471883 0.0587655 0  0.570312 0.129396 0  0.548437 0.07598340000000001 0  0.504687 0.08105569999999999 0  0.49375 0.0470127 0  0.570312 0.112663 0  0.592798 0.12103 0  0.553986 0.12103 0  0.570312 0.0805201 0  0.48125 0 0  0.114787 0.2 0  0.160769 0.284765 0  0.175816 0.288361 0  0.162602 0.116048 0  0.154687 0.07598340000000001 0  0.176562 0.0805201 0  0.0598995 0.147547 0  0.307812 0.109924 0  0.291279 0.117157 0  0.278491 0.112989 0  0.285937 0.07598340000000001 0  0.307812 0.0805201 0  0.296928 0.196743 0  0.318141 0.218507 0  0.330208 0.227509 0  0.301397 0.225668 0  0.302706 0.241401 0  0.292574 0.21424 0  0.282762 0.230935 0  0.284351 0.244775 0  0.269553 0.23261 0  0.278572 0.217242 0  0.226924 0.342606 0  0.446928 0.185396 0  0.515625 0.3 0  0.504687 0.288879 0  0.515256 0.276534 0  0.529479 0.285328 0  0.58125 0.3 0  0.541969 0.272936 0  0.559375 0.3 0  0.556796 0.282529 0  0.543473 0.287206 0  0.581429 0.267774 0  0.566728 0.271171 0  0.570869 0.255585 0  0.577404 0.283865 0  0.603125 0.3 0  0.597531 0.28035 0  0.570312 0.338778 0  0.592188 0.292492 0  0.603513 0.256094 0  0.614063 0.286265 0  0.610329 0.27064 0  0.632708 0.251285 0  0.657223 0.261594 0  0.618789 0.257807 0  0.614188 0.22987 0  0.630935 0.265614 
[...]
<PointData  Vectors="v"> 
	<DataArray  type="Float64"  Name="v"  NumberOfComponents="3" format="ascii">
0.0 0.0 0.0 0.0 0.0 0.0 0.0 0.0 0.0 0.0 0.0 0.0 0.7989775091855398 -0.18911074965196084 0.0 0.8400112358378262 0.19655310456664582 0.0 1.15490284148494 -0.2184776188551704 0.0 0.7122171451302236 -0.08638354487787436 0.0 0.0 0.0 0.0 0.0 0.0 0.0 0.0 0.0 0.0 0.0 0.0 0.0 0.0 0.0 0.0 0.0 0.0 0.0 0.0 0.0 0.0 0.0 0.0 0.0 0.0 0.0 0.0 0.0 0.0 0.0 0.0 0.0 0.0 0.0 0.0 0.0 0.0 0.0 0.0 0.0 0.0 0.0 0.0 0.0 0.0 0.0 0.0 0.0 0.0 0.0 0.0 0.0 0.0 0.0 0.0 0.0 0.0 0.0 0.0 0.0 0.0 0.0 0.0 0.0 0.0 0.0 0.0 0.0 0.0 0.0 0.0 0.0 0.0 0.0 0.0 0.0 0.0 0.0 0.0 0.0 0.0 0.0 0.0 0.0 0.0 0.0 0.0 0.0 0.0 0.0 0.0 0.0 0.0 0.0 0.0 0.0 0.0 0.0 0.0 0.7652574474655394 -0.005345528261789316 0.0 1.1188379661215477 0.029273569893640966 0.0 1.2328441918087907 -0.2546402545100655 0.0 0.0 0.0 0.0 1.2941015319513407 -0.03918922384865453 0.0 1.3177155524155324 0.09651821763675243 0.0 0.0 0.0 0.0 0.0 0.0 0.0 1.0 0.0 0.0 0.0 0.0 0.0 0.0 0.0 0.0 0.0 0.0 0.0 0.8486764264126626 -0.23113566937617566 0.0 1.1586149117123639 -0.29145766838449244 0.0 0.8673423858028199 0.2217406002077146 0.0 1.1673544451008842 0.31033922414818865 0.0 0.43254654039206936 -0.007428225221118504 0.0 0.15852023960763575 0.025922710736672277 0.0 0.20137698550341673 -0.016501382086087087 0.0 -0.051662869753111504 -0.06393376689198277 0.0 -0.04430615389961769 0.06667200676921753 0.0 0.33907908651877544 -0.2853478134562354 0.0 0.8776726050330297 -0.6730433162052089 0.0 0.6542185924262347 -0.696958770254061 0.0 1.2527675157385465 -0.6006339615550216 0.0 0.3370446373206383 0.011806020837924485 0.0 0.3337570001414288 0.26694651421782467 0.0 0.651757534354878 0.6709592042315967 0.0 1.2190608959379117 0.6037462005045523 0.0 0.28314234199271104 0.0023153945172524055 0.0 1.2829031294948556 0.1962902846525602 0.0 -0.022356634645150305 0.045484718282251466 0.0 1.2740556268159808 -0.15332976619651853 0.0 -0.008641015864369436 -0.05939083042231171 0.0 -0.03945298149941291 -0.029681567215796543 0.0 1.247580450262073 -0.39922363324092286 0.0 1.1376605966425488 -0.7326177226840649 0.0 0.8695521182267575 0.7764529896263522 0.0 1.2262683791725746 0.39872356267065323 0.0 0.9020313433629843 0.16503158942428342 0.0 -0.03413207558879774 0.057824892792060524 0.0 0.9508174186792253 -0.15892938185128 0.0 -0.04017764022526977 -0.08067505596796286 0.0 -0.02984895832523766 0.01770637724250876 0.0 1.0584811987025 0.7271560697826825 0.0 0.44723877444105437 0.5300497001735411 0.0 0.5289502701413948 0.033007764896346624 0.0 0.06750010415973921 0.05290378323503823 0.0 0.5815555328579638 -0.025556237517039067 0.0 0.11363518605542504 -0.04203914668079691 0.0 -0.11339822187689605 0.039097364800657175 0.0 0.9673891742732349 0.29754770019669874 0.0 1.2516222782746884 0.2482684039874223 0.0 1.29275471058237 0.20668585541615447 0.0 1.2291582525858495 -0.22790885672575834 0.0 1.3140051020144257 -0.17895753616870744 0.0 1.3007510526274901 0.25666216100983036 0.0 1.3298130048359424 -0.23337934790252463 0.0 0.4518431493597609 -0.553347284327908 0.0 0.806890040706477 -0.14193895659914516 0.0 0.6814213665927128 -0.4209941870541787 0.0 0.890066157646417 0.5902880658018893 0.0 0.8030094140414036 0.1372160857996189 0.0 0.6837051782911344 0.4162317682272369 0.0 1.3328184240226473 -0.06700002705079099 0.0 0.17880496665153975 0.029435132974307894 0.0 0.25254740919946483 -0.02017137965569675 0.0 -0.09242948598630804 -0.016716125744726765 0.0 1.300268692377092 0.42960355473648687 0.0 0.8683940271216898 0.06898413303659325 0.0 1.3071452309597853 -0.4255444804444297 0.0 0.9449729845971538 -0.0468773694098924 0.0 1.3301343887715478 0.3620444213735002 0.0 1.2689445982143392 0.3476555376232723 0.0 1.3429641598701374 -0.3467732980012144 0.0 1.2685561321696204 -0.3150262847570168 0.0 0.5895418839534079 -0.16406141613621153 0.0 0.805336889546951 -0.33130752183140083 0.0 1.0299596014341592 0.5957772426990715 0.0 0.5961997427074178 0.146752624319795 0.0 0.8183347286651381 0.3250801495790793 0.0 0.8607044752745496 0.04246279737037167 0.0 0.9734067053933162 0.004836838668516828 0.0 -0.038083684120908484 -0.037856707206147755 0.0 1.310521672716762 0.13838419411772562 0.0 0.937029001206145 -0.3019826831326068 0.0 1.2893078041923522 -0.0899903491232018 0.0 0.39240153507633646 0.02816827569550797 0.0 0.5075393474818184 0.00046128002445973816 0.0 -0.1413958391243205 0.03859224523159572 0.0 1.0607225727241214 0.3234629721288275 0.0 0.951171717345066 0.37853443574676304 0.0 1.0203678601174933 0.07304910493286304 0.0 0.9800297087376115 -0.02922593274122438 0.0 1.1959156715824983 0.08904471790176269 0.0 1.0368715528644297 -0.31147664100154215 0.0 1.1044957937829896 -0.555740503479219 0.0 0.9438670864193838 -0.3785268494425541 0.0 1.016787390422323 -0.4221407689022306 0.0 0.9515345616458845 -0.5378668486357673 0.0 0.8773856951015645 -0.4020564835335735 0.0 1.3083554852348078 0.16009039378893591 0.0 1.3158943063773203 -0.12163088569790328 0.0 0.857965254701626 -0.23133460146647877 0.0 0.8875950308202118 -0.30279951181098463 0.0 0.8609725599517496 -0.2956112192790734 0.0 0.8557310538351482 -0.24417608510393235 0.0 0.8595903718421715 -0.24473314278644834 0.0 0.9048725649716374 -0.3076440800147061 0.0 1.3152691205478257 0.23090336570458675 0.0 1.2294060233274478 -0.03379733734058835 0.0 1.3259628117140152 0.2911342015239444 0.0 1.3126888428168368 -0.18961195725699645 0.0 0.0 0.0 0.0 0.0 0.0 0.0 1.3183955141516341 -0.2609348596108909 0.0 0.7212198358760709 -0.26970331003869275 0.0 0.8258790806247256 -0.21166037212865443 0.0 0.8743408463669401 -0.11260127727854731 0.0 0.8666644235088506 -0.16433287084151252 0.0 0.9375 0.0 0.0 0.7500000000000001 0.0 0.0 0.7273094175988114 0.2605749549260893 0.0 0.8277446945901166 0.19378466431928168 0.0 0.7499999999999999 0.0 0.0 0.8723650923115768 0.12169292420362758 0.0 0.9300954953892756 0.0379982173338101 0.0 0.8509891996098464 0.040161645873534026 0.0 -0.10557137243827723 -0.0030885325660846142 0.0 0.017383745908327496 0.012238553199280645 0.0 1.1366417934221387 0.5376176730677653 0.0 1.0314832488519936 0.4581959840192843 0.0 0.882973802799571 0.235553897854941 0.0 1.247992269982803 0.0909168968316078 0.0 1.3207870147768546 0.02082754562724673 0.0 0.27911508652736217 0.04455536652768206 0.0 1.324151603375617 0.057151361461345314 0.0 0.8074168890847263 0.028817556338999146 0.0 1.2297724225214108 0.0634960758959382 0.0 0.5978284107631988 0.03216146852786902 0.0 0.5428544363998948 0.03409084675019195 0.0 0.03810710981590532 0.10817000544516077 0.0 1.083298783257205 0.0196049061015358 0.0 0.2566735351291538 0.07051964256507157 0.0 0.22796467874939427 0.10622386671087779 0.0 0.311827727687593 0.07722139572552211 0.0 0.8510545220633802 -0.00117804321335348 0.0 0.6208400679774632 0.03242817726061446 0.0 1.3315970793977001 -0.02165754656088685 0.0 0.5946102829847506 0.029488857166208932 0.0 1.28489237850556 -0.05248956395745828 0.0 0.12074340404607409 -0.017001576543164993 0.0 1.152160937869632 0.11741441764433637 0.0 0.8846898742420239 0.17163696556739808 0.0 0.6973029663853529 -0.15373546134067342 0.0 1.026030932660673 -0.03672491776615981 0.0 1.0166397898408464 -0.17320847865226263 0.0 0.8677438974396453 -0.18092648066903644 0.0 0.8782197296574149 -0.02925527754679937 0.0 0.5117541005305235 0.016210931997192538 0.0 0.2990774692241695 0.027763377751907188 0.0 1.2613916061929058 0.05210849173476909 0.0 0.22174027008771618 0.09331450803438217 0.0 1.2894379817609272 0.009369887807294704 0.0 0.17444473410789313 0.054583267131786434 0.0 0.7017745589535945 0.08080851640166817 0.0 -0.09367617761641697 0.08025017983094189 0.0 0.7346972342923116 0.052453270606458734 0.0 0.8833684602518962 0.2879371954900684 0.0 0.8868928503756047 0.4022021421590816 0.0 0.8850886811216249 0.2555229669439846 0.0 0.9138199363362138 0.10365324885911438 0.0 0.8661534200057337 0.212464477728 0.0 0.9079442262739456 0.2915042913471348 0.0 0.8570171808598617 0.2211151393883546 0.0 0.8001743241924811 0.17186964593341802 0.0 0.8674705247745167 0.1531258964459783 0.0 0.0 0.0 0.0 0.8413514031991817 0.16716033087525742 0.0 0.8733463243230064 0.16416088959170727 0.0 1.12642151321747 0.01042374566798264 0.0 1.2793127241803368 0.03505797574659703 0.0 1.0386451821321798 0.004060253665544574 0.0 0.8969369983492441 -0.06810183329076851 0.0 1.216951275424911 0.09191267645713848 0.0 0.7174229232612832 -0.16364775702510323 0.0 1.115084303847557 -0.09054110129142877 0.0 1.1390117485159919 0.0801902910498638 0.0 1.2354828664178832 0.07894897788038152 0.0 0.7634452226030403 0.1237677894034952 0.0 1.2330203727440057 0.08255922100519646 0.0 1.0960214966360107 0.11785259342257572 0.0 -0.11133146815535411 0.17187434673489818 0.0 -0.18977450892745357 0.13110685652429427 0.0 0.948830435371822 0.3253679845409355 0.0 1.0921573007466043 -0.04563719955790365 0.0 0.6360955531186597 0.019621656172030932 0.0 0.0 0.0 0.0 1.238397303976764 -0.01187485045303232 0.0 1.2822626279940528 -0.0025250211857361206 0.0 1.2399710970193476 0.06237626508018586 0.0 1.0828864209511524 -0.13550247773820032 0.0 0.5328176117722067 0.0955920473028703 0.0 1.2001727858961797 0.0996930437405822 0.0 1.1361039791949532 0.07031567787663548 0.0 -0.03642462667226292 0.13054731239022874 0.0 -0.1861534669207455 0.08882844567874884 0.0 -0.18269932958502796 0.12393809016432777 0.0 -0.1529644399376186 0.08801135278847773 0.0 1.1518009047129212 0.1674568172356625 0.0 0.7714455835923306 0.1825894346425362 0.0 0.7766485215831241 0.1447044417607602 0.0 0.7853778691925164 0.10006379059699987 0.0 0.6165943854213514 0.10274234534968493 0.0 0.4919539212746116 0.054930836811431634 0.0 0.20254291588769097 0.11797534812975019 0.0 0.7104372743323019 -0.0766838628762494 0.0 0.992960400765324 0.042121667906330214 0.0 0.0 0.0 0.0 0.6555464313838375 0.1504578700390655 0.0 1.0230233284460866 0.13315427981272063 0.0 -0.20224564914180407 0.18278045971682771 0.0 1.0789127441228454 0.22285772045726981 0.0 0.9009262535975552 0.10577345373807379 0.0 1.3226471568037639 -0.17583457534548272 0.0 0.18262979091574702 0.155312231679594 0.0 0.3752781290210563 0.1613295075765272 0.0 0.09480725125586807 0.17729212731690028 0.0 1.1649746188148518 0.08507711231470089 0.0 -0.21735221231053592 0.1567501916859327 0.0 -0.20250695080957565 0.16093379910941483 0.0 -0.22835981095102764 0.18903120671816334 0.0 -0.07838547955666386 0.15657267708185552 0.0 -0.08835025488811467 0.14895934947811915 0.0 -0.19669821451757522 0.18494136651220638 0.0 -0.20667675106458008 0.16716000333754266 0.0 -0.002320256651612853 0.14891072697822028 0.0 -0.22344570412071607 0.17491648906462295 0.0 0.2745099908722409 0.06414853941802118 0.0 -0.032035993576145214 0.16285716411807002 0.0 -0.11584236018596268 0.06314397212122753 0.0 -0.15295168327944372 0.1275524928516229 0.0 0.15591769824797355 0.030772119153637374 0.0 0.0 0.0 0.0 0.9356058039286264 0.22924444461970758 0.0 0.951686453269603 0.036352122640546734 0.0 0.43317906480598956 0.05421308141133492 0.0 0.37780888036298155 0.130645766075624 0.0 0.6460499579001091 0.15609048149002586 0.0 0.955906581401544 0.12492951650263599 0.0 1.1499717195314605 0.1066728211632159 0.0 1.2724357894326628 -0.04459586603807103 0.0 -0.010499230182550988 0.17365030887576166 0.0 0.08573650124561592 0.0916761277386617 0.0 0.38737177622379226 -0.21521680640821236 0.0 0.42149065189945883 -0.01957835793037746 0.0 0.4927540122442517 -0.13450416443986987 0.0 0.7112822924248043 -0.13886303651204576 0.0 1.0268824875341969 -0.3126478103968049 0.0 1.193370123048619 -0.21894499294505218 0.0 0.8190744716456146 -0.23323055675521434 0.0 0.9519874076620952 -0.16850532904015036 0.0 1.067989687406946 -0.24781235646921965 0.0 1.104731982640707 -0.1502350447477627 0.0 0.7302062440905597 -0.2840119909978619 0.0 1.2860189535296307 -0.2202514444449968 0.0 1.2794315917005628 -0.1924689400021724 0.0 1.3377126427002077 -0.11787211361744908 0.0 1.2679345315137245 -0.13666215775770926 0.0 0.2886423647707644 -0.26244622290638475 0.0 1.2587203908785567 -0.27253524979356797 0.0 1.2507254707268138 -0.09478162842651114 0.0 0.8790768883692553 0.08817248890838632 0.0 0.08809681320402711 -0.25188008884581065 0.0 0.9368028207589592 -0.3421656796245057 0.0 0.9682837782156457 -0.14028586171051508 0.0 0.586827704319832 -0.3135152047684087 0.0 -0.06046300446932628 -0.07637971644952811 0.0 1.1627129295070218 -0.2610184131782658 0.0 0.5098716407592304 -0.3748624532786954 0.0 0.06415005016354913 -0.17752886426819844 0.0 -0.12137005969896031 -0.11984176968317535 0.0 0.47814985288629586 -0.34382912770979107 0.0 0.2599930524663044 -0.3300132500325552 0.0 0.8831513927150956 -0.3774621235089097 0.0 0.31380908736642493 -0.368227767479679 0.0 0.2752883349494055 -0.2664176328346905 0.0 -0.06847961156382387 -0.21007082304076552 0.0 0.22350291728552907 -0.3833749112886702 0.0 0.08352454231719796 -0.3298613459849704 0.0 -0.05458802862766861 -0.17557614980184794 0.0 1.095283624195708 0.25341311381350146 0.0 0.2116932713302745 -0.02826491371504966 0.0 0.7342002156133925 -0.36249584913371213 0.0 0.5265205123589448 0.0028523070942402555 0.0 0.9661355567834251 -0.050888664448090905 0.0 0.34711844402837055 0.1670062278565127 0.0 1.1045412826147831 0.0919147029093198 0.0 0.8694710852915815 0.0858069584358156 0.0 1.1181502864062753 -0.33065854564339375 0.0 -0.18170653372671178 0.18485796854938583 0.0 0.14154177104351992 -0.05136045234532094 0.0 -0.04894235449547547 -0.014001845211109733 0.0 -0.1799504335618919 0.04510380657492868 0.0 0.13567229485343482 -0.11970010049090542 0.0 0.8168919474388909 -0.36163365680209336 0.0 1.0908534757581423 -0.23840903256969567 0.0 1.0331908237175764 -0.3645468509705709 0.0 1.060982165950601 -0.31765189559530294 0.0 0.005041995680906597 -0.3051790365672363 0.0 0.4813814312195394 -0.37844325910927407 0.0 0.2687541362761535 -0.38356027888143446 0.0 0.5818980210353532 -0.3321985732120403 0.0 0.3208081527052396 -0.38819069199942674 0.0 1.216930416509115 0.11454307029464521 0.0 0.14733694871777228 -0.3960145353805732 0.0 0.2480791278999263 -0.2888600752736118 0.0 0.17074823521191726 -0.3781301242238286 0.0 0.2527679912571331 -0.32037171797915465 0.0 0.2800430080128184 0.1271877303961094 0.0 1.0264849260789854 -0.35868999207823044 0.0 0.9017303823061502 -0.36175565244786756 0.0 1.1331455764660632 -0.34124787675736773 0.0 0.7384848945355568 -0.37997215232735687 0.0 0.9383937191900648 -0.2508798025435073 0.0 1.140925160930701 -0.2873280054805593 0.0 1.1872806311287938 -0.3137847586525806 0.0 1.2261877575689692 -0.3032278150439026 0.0 0.8958038194788503 -0.3175137685366917 0.0 0.7943852252718875 -0.28451015231376536 0.0 0.5932363305663985 -0.2380690865222137 0.0 0.6571027100047148 -0.27700307290045656 0.0 0.45169215174248684 -0.33381779500505 0.0 0.8451683160027366 -0.1794878155945653 0.0 0.20963434911762024 0.1555036161978342 0.0 0.6352817866320484 0.13285831907168436 0.0 -0.05949002996413581 0.138783332001932 0.0 0.04465228305227113 0.07673308752264837 0.0 -0.20481006299568333 0.11686094806465475 0.0 1.173612566558169 0.048278126953094136 0.0 1.0049424272525314 0.05079384382568872 0.0 1.2736934887472104 -0.09027844231028614 0.0 1.1412371676760376 -0.19210967092165676 0.0 0.3914180500544228 -0.3142378374747374 0.0 0.39875685448005127 -0.2157390211888992 0.0 0.4965117574022142 0.07192252774601697 0.0 -0.054531580163539976 -0.004912384750805831 0.0 1.124850914750145 0.05972917832446324 0.0 1.2539849296007672 -0.13277566850841832 0.0 0.7013964485850701 -0.0731410513327669 0.0 1.115732975271449 -0.20974039689017662 0.0 0.5657243704928447 0.09853036184388858 0.0 1.1182474151101018 0.0483898372722333 0.0 0.21970186186152 0.029603460987346328 0.0 0.6264203145291665 0.021084591536128853 0.0 1.1318010080741987 0.06575106498551238 0.0 1.0971027137423874 -0.09180616497814877 0.0 1.059272924965134 -0.20178918272372756 0.0 0.7837109907598394 0.0660436953361728 0.0 0.9619084591776972 0.032653223614297344 0.0 1.0196557812753044 0.05651014473016046 0.0 1.163406640322551 0.03383841863447532 0.0 1.0559088807472892 0.005072169215986215 0.0 0.8905155541380242 0.010635720385796429 0.0 0.5842935770739249 -0.035045050820738124 0.0 0.9338426997832299 -0.14024506964964997 0.0 0.0 0.0 0.0 1.087563942279986 0.04728693445372601 0.0 0.8771876612374137 -0.026269765618840795 0.0 0.23195952827466323 -0.10848375382537169 0.0 1.1021488787472982 0.03767804843487152 0.0 0.831643426904814 -0.02405090321267136 0.0 1.1348288327305591 0.021950394213583798 0.0 0.5418217504215848 -0.08169231402620772 0.0 1.1957729767278624 0.06780828152819758 0.0 0.6062306109437549 -0.10998407210645841 0.0 0.22157430570190095 -0.1984592510052778 0.0 1.1066082576166338 0.022357889338007024 0.0 0.6552645048926284 -0.08131849380737059 0.0 1.1039029214492473 0.04734415635553921 0.0 0.8783727535467734 -0.02665997155786157 0.0 0.912620409600875 0.0060766074058183584 0.0 1.076748142534547 0.015926723212351033 0.0 1.0247957550489755 0.004598115513970224 0.0 1.1103126875336986 0.03479876139823347 0.0 0.07421230654279905 -0.19134634935047848 0.0 0.9665636818199282 0.08679538392156576 0.0 1.1974576256171328 0.08005370100142853 0.0 1.1918358507936258 0.09807627709312967 0.0 1.2033835521624963 0.22090969998684526 0.0 1.2266840664121696 0.17105729013083645 0.0 1.1230491566604792 0.042742818479707505 0.0 0.976363797942125 0.04320255948861655 0.0 1.158325301476443 0.17207795053082586 0.0 1.0845828802816644 0.13428063270675727 0.0 1.1357565867256636 0.06304432711672989 0.0 0.8338694632206658 0.0492405722054198 0.0 1.239354246255419 0.2030997995867793 0.0 1.233979969568775 0.268015559644454 0.0 1.1776183311830506 0.13041756942087673 0.0 1.0912881562059646 0.17499581883577933 0.0 0.0 0.0 0.0 0.649119931070299 -0.009276074046706545 0.0 1.089383047920842 0.4099471876298972 0.0 1.1812924359773633 0.3873191564386758 0.0 1.1034328911925282 -0.3976544594068719 0.0 0.8609891478242789 -0.20231816698835298 0.0 0.9723288134991384 -0.21683940883326752 0.0 0.8942897661583289 -0.08582127186617525 0.0 1.2630437048643328 0.04180008096324134 0.0 1.2052245829735853 0.020611379876675263 0.0 1.2713402330537829 -0.015501921089190624 0.0 1.1506949235318509 -0.006231911165055714 0.0 1.1811984343037145 0.025420502214544543 0.0 -0.15162838716602328 0.046854566302225516 0.0 -0.11180899829197267 0.1201007349235022 0.0 -0.02321492280505767 0.13215433551478487 0.0 -0.0573024344729801 0.09743195132904257 0.0 0.08599662120778487 0.08298852091810742 0.0 -0.10906070272556291 0.07692792955395611 0.0 -0.02800213762843916 0.08318057211941395 0.0 0.08888356626155045 0.06388610412790527 0.0 -0.029520300587473576 0.07625631883947027 0.0 -0.0754083630639655 0.07058441560365757 0.0 0.987546448674287 0.12006007096140692 0.0 -0.16407466429502227 -0.03991059250812906 0.0 1.024634613147481 -0.1952605479081305 0.0 1.0691369628348877 -0.25932296193173304 0.0 1.0147779492152873 -0.27036485507806485 0.0 0.9920054204233478 -0.2017494483907634 0.0 0.9017379201903567 -0.0064898007801578285 0.0 0.9207285410565716 -0.193771357550984 0.0 0.925676584884548 -0.07011054078464674 0.0 0.9168096952811643 -0.11443322192558217 0.0 0.9553083249070456 -0.14891363107861938 0.0 0.762460234291511 -0.07391141511825126 0.0 0.8424404268587424 -0.10728697670973444 0.0 0.6872597003324271 -0.15676466536072653 0.0 0.8752669263217884 -0.0422409997218562 0.0 0.8850158110302504 0.04930106726280988 0.0 0.8094662724039766 0.007230736367614431 0.0 0.7847844811223353 -0.014032815704676488 0.0 0.8795243122287311 0.019325766506438243 0.0 0.5134928499705299 -0.09121793215864944 0.0 0.8122081700721188 0.05509752693265589 0.0 0.6653512899943356 -0.004875493837275172 0.0 0.3820227448093562 0.0031293636220501957 0.0 0.45032005140779446 0.1075998127426614 0.0 0.4673149425617678 -0.042170457172352134 0.0 0.3211078530299994 -0.08445437439216386 0.0 0.5184376256384299 0.01863210192853642 0.0 0.3443302425234467 -0.06022075520008216 0.0 0.8928039997956702 0.10707828891124264 0.0 0.4463888106884963 0.11503892918302222 0.0 1.0058283613605787 0.052595495680251146 0.0 0.7432101687