<?xml version="1.0"?>
<VTKFile type="UnstructuredGrid"  version="0.1"  >
<UnstructuredGrid>
<Piece  NumberOfPoints="1289" NumberOfCells="2413">
<Points>
<DataArray  type="Float64"  NumberOfComponents="3"  format="ascii">0 0 0  0 0.41 0  2.2 0.41 0  2.2 0 0  0.1 0.1 0  0.1 0.3 0  0.8 0.3 0  0.8 0.1 0  0.25 0.2 0  0.248976 0.210065 0  0.245948 0.219718 0  0.241038 0.228563 0  0.234448 0.23624 0  0.226448 0.242432 0  0.217365 0.246888 0  0.207571 0.249423 0  0.197468 0.249936 0  0.187467 0.248404 0  0.17798 0.24489 0  0.169395 0.239539 0  0.162062 0.232569 0  0.156283 0.224265 0  0.152293 0.214968 0  0.150257 0.205058 0  0.150257 0.194942 0  0.152293 0.185032 0  0.156283 0.175735 0  0.162062 0.167431 0  0.169395 0.160461 0  0.17798 0.15511 0  0.187467 0.151596 0  0.197468 0.150064 0  0.207571 0.150577 0  0.217365 0.153112 0  0.226448 0.157568 0  0.234448 0.16376 0  0.241038 0.171437 0  0.245948 0.180282 0  0.248976 0.189935 0  1.1 0 0  1.1 0.41 0  0.1 0.2 0  0.45 0.1 0  0.45 0.3 0  0.55 0 0  0.275 0.1 0  0.275 0.3 0  0.275 0 0  0.55 0.41 0  0 0.205 0  0.825 0 0  0.825 0.41 0  0.275 0.41 0  0.1 0.15 0  0.1875 0.1 0  0.1 0.25 0  0.1875 0.3 0  0.132322 0.2 0  0.241426 0.253518 0  0.241426 0.146482 0  0.264574 0.17974 0  0.264574 0.22026 0  0.138434 0.187348 0  0.153372 0.150948 0  0.148413 0.164094 0  0.176495 0.136535 0  0.22768 0.143571 0  0.138434 0.212652 0  0.148413 0.235906 0  0.176495 0.263465 0  0.22768 0.256429 0  0.23125 0.3 0  0.24769 0.24094 0  0.23125 0.1 0  0.24769 0.15906 0  0.26253 0.193641 0  0.190482 0.137872 0  0.166753 0.146661 0  0.157737 0.244461 0  0.190482 0.262128 0  0.203107 0.261264 0  0.253635 0.22977 0  0.203107 0.138736 0  0.253635 0.17023 0  0.261028 0.206206 0  0.167707 0.251809 0  0.143629 0.224191 0  0.215302 0.2591 0  0.270465 0.245894 0  0.215302 0.1409 0  0.270465 0.154106 0  0.284052 0.202587 0  0.14375 0.3 0  0.209375 0.3 0  0.225966 0.278501 0  0.209375 0.1 0  0.225966 0.121499 0  0.211613 0.273759 0  0.211613 0.126241 0  0.143629 0.175809 0  0.1 0.175 0  0.133484 0.164832 0  0.144491 0.249539 0  0.1 0.225 0  0.133484 0.235168 0  0.3625 0.3 0  0.25691 0.253381 0  0.25691 0.146619 0  0.277205 0.188698 0  0.184724 0.275712 0  0.237372 0.268285 0  0.184724 0.124288 0  0.237372 0.131715 0  0.197578 0.273149 0  0.193656 0.286994 0  0.197578 0.126851 0  0.193656 0.113006 0  0.122953 0.187671 0  0.118362 0.153758 0  0.155372 0.258107 0  0.122953 0.212329 0  0.118362 0.246242 0  0.276394 0.27264 0  0.276394 0.12736 0  0.280965 0.170013 0  0.253125 0.3 0  0.14375 0.1 0  0.253125 0.1 0  0.269489 0.26014 0  0.269489 0.13986 0  0.303639 0.184297 0  0.165625 0.3 0  0.134742 0.273113 0  0.257831 0.274737 0  0.255279 0.128499 0  0.3625 0.1 0  0.165625 0.1 0  0.162031 0.132368 0  0.134955 0.126405 0  0.149334 0.125568 0  0.142936 0.139597 0  0.12695 0.140259 0  0.242514 0.285501 0  0.242514 0.114499 0  0.1 0.125 0  0.117483 0.12555 0  0.11154 0.139776 0  0.121875 0.1 0  0.109143 0.1125 0  0.126805 0.114 0  0.220313 0.29129 0  0.351562 0.287369 0  0.207222 0.2866 0  0.220312 0.10871 0  0.1375 0 0  0.20625 0 0  0.207222 0.1134 0  0.11722 0.17118 0  0.1 0.1625 0  0.0778409 0.16875 0  0.0862762 0.15625 0  0 0.15375 0  0 0.1025 0  0.11722 0.22882 0  0.1 0.2375 0  0 0.3075 0  0.0862762 0.23125 0  0.0598995 0.222547 0  0.0860223 0.2125 0  0.289584 0.181469 0  0.300267 0.16446 0  0.163832 0.269071 0  0.149597 0.273325 0  0.1 0.275 0  0.268498 0.285953 0  0.31875 0.3 0  0.294154 0.254672 0  0.296875 0.3 0  0.293558 0.271845 0  0.285095 0.286799 0  0.324298 0.264316 0  0.307866 0.263745 0  0.317093 0.234901 0  0.315485 0.281219 0  0.316547 0.250625 0  0.344693 0.243731 0  0.331592 0.251147 0  0.35129 0.270663 0  0.338689 0.263683 0  0.340625 0.3 0  0.249849 0.264383 0  0.265097 0.11422 0  0.284688 0.156136 0  0.242188 0.324017 0  0.0856613 0.2625 0  0.132812 0.0612217 0  0.264062 0.0612217 0  0.198437 0.07598340000000001 0  0.0860223 0.1375 0  0.0794526 0.191089 0  0.285228 0.140397 0  0.298655 0.148737 0  0.31875 0.1 0  0.327335 0.15374 0  0.296875 0.1 0  0.312289 0.155283 0  0.313348 0.135607 0  0.321802 0.173916 0  0.298433 0.134116 0  0.112124 0.2625 0  0.127526 0.259083 0  0.121875 0.3 0  0.0682687 0.241503 0  0.1 0.2875 0  0.117762 0.28125 0  0.107813 0.3 0  0.103906 0.313849 0  0.0778409 0.28125 0  0.1375 0.41 0  0.0862762 0.29375 0  0.08886860000000001 0.24375 0  0.307812 0.338778 0  0.307812 0.292227 0  0.33216 0.279164 0  0.387888 0.266414 0  0.264063 0.31948 0  0.110937 0.07598340000000001 0  0.242188 0.07598340000000001 0  0.319914 0.11839 0  0.340625 0.1 0  0.334448 0.133793 0  0.329687 0.108539 0  0.346259 0.118491 0  0.360334 0.173636 0  0.327539 0.205033 0  0.132812 0.288712 0  0.362436 0.278836 0  0.368105 0.259418 0  0.4125 0.41 0  0.329687 0.324017 0  0.329687 0.292306 0  0.285938 0.318952 0  0.417187 0.338778 0  0.324481 0.14148 0  0.351562 0.106771 0  0.40625 0.1 0  0.341028 0.168342 0  0.319221 0.190479 0  0.335292 0.184501 0  0.305563 0.20794 0  0.220313 0.31948 0  0.132812 0.332772 0  0.0865876 0.311259 0  0.0598995 0.302453 0  0.0906541 0.343255 0  0.353543 0.255837 0  0.36574 0.237633 0  0.405007 0.254279 0  0.275795 0.352123 0  0.4125 0 0  0.35493 0.137394 0  0.366563 0.120618 0  0.35917 0.205246 0  0.198438 0.318952 0  0.0626109 0.263892 0  0.40625 0.3 0  0.354809 0.155936 0  0.386512 0.146872 0  0.373101 0.159939 0  0.384375 0.1 0  0.343394 0.19929 0  0.350682 0.185683 0  0.368101 0.189748 0  0.344016 0.221511 0  0.391108 0.213329 0  0.376279 0.204783 0  0.398843 0.182768 0  0.375804 0.222746 0  0.390665 0.196958 0  0.394004 0.23518 0  0.359883 0.222828 0  0.419908 0.204359 0  0.404243 0.204783 0  0.412615 0.224526 0  0.20625 0.41 0  0.165625 0.325257 0  0.0347982 0.244954 0  0.379558 0.247154 0  0.34165 0.147603 0  0.372264 0.136992 0  0.388988 0.121989 0  0.373437 0.108554 0  0.351562 0.31948 0  0.391367 0.16527 0  0.399572 0.223324 0  0.452011 0.227371 0  0.40877 0.239392 0  0.431491 0.237337 0  0.421224 0.250459 0  0.449619 0.262098 0  0.418865 0.276779 0  0.437063 0.252274 0  0.415673 0.263227 0  0.430988 0.266772 0  0.402767 0.273419 0  0.452967 0.244883 0  0.428125 0.3 0  0.408502 0.286186 0  0.384375 0.3 0  0.392267 0.285807 0  0.465927 0.219339 0  0.43489 0.283846 0  0.376424 0.286289 0  0.625 0.3 0  0.473533 0.205186 0  0.461713 0.255517 0  0.5375 0.3 0  0.465725 0.235405 0  0.44631 0.201425 0  0.471875 0.3 0  0.494307 0.227729 0  0.459448 0.206736 0  0.462294 0.180792 0  0.478933 0.227536 0  0.486793 0.21381 0  0.486322 0.251373 0  0.50065 0.215318 0  0.54005 0.175389 0  0.474633 0.189893 0  0.512916 0.208697 0  0.49531 0.199967 0  0.475889 0.175275 0  0.625 0.1 0  0.459311 0.153933 0  0.513645 0.242704 0  0.392892 0.248539 0  0.374815 0.271913 0  0.365974 0.14871 0  0.395312 0.109184 0  0.417061 0.123981 0  0.483196 0.277003 0  0.381967 0.179632 0  0.429898 0.219374 0  0.433473 0.206165 0  0.43149 0.181038 0  0.444208 0.215487 0  0.472985 0.247309 0  0.49375 0.3 0  0.475579 0.262714 0  0.49916 0.274293 0  0.501175 0.184809 0  0.514164 0.225681 0  0.543648 0.214977 0  0.5341630000000001 0.23481 0  0.527396 0.216171 0  0.5375 0.1 0  0.534548 0.202315 0  0.561545 0.192513 0  0.5494289999999999 0.201221 0  0.570923 0.218346 0  0.412582 0.149833 0  0.489327 0.264745 0  0.502439 0.254775 0  0.462391 0.271166 0  0.496775 0.241732 0  0.5294410000000001 0.268606 0  0.482812 0.291099 0  0.46879 0.285038 0  0.452663 0.284065 0  0.51789 0.257882 0  0.53408 0.252026 0  0.560142 0.243543 0  0.545708 0.243474 0  0.547532 0.229019 0  0.55282 0.265323 0  0.398971 0.153424 0  0.400349 0.135684 0  0.410135 0.168145 0  0.428823 0.161323 0  0.415266 0.183779 0  0.329687 0.0810483 0  0.395312 0.0612217 0  0.373437 0.318952 0  0.439062 0.324017 0  0.561816 0.229354 0  0.585029 0.239287 0  0.431827 0.139854 0  0.446796 0.168929 0  0.351562 0.07598340000000001 0  0.395313 0.318944 0  0.54337 0.150762 0  0.460937 0.31948 0  0.418412 0.137529 0  0.428125 0.1 0  0.442783 0.152332 0  0.450742 0.134294 0  0.373437 0.0805201 0  0.384383 0.342558 0  0.482812 0.318952 0  0.429239 0.127457 0  0.444274 0.117405 0  0.426548 0.113815 0  0.49375 0.1 0  0.488954 0.113984 0  0.457973 0.121842 0  0.471621 0.137346 0  0.515625 0.325257 0  0.48125 0.41 0  0.417187 0.07598340000000001 0  0.496363 0.126778 0  0.479043 0.155715 0  0.439062 0.0805201 0  0.481795 0.126919 0  0.471875 0.1 0  0.489227 0.142159 0  0.515625 0.1 0  0.520062 0.147117 0  0.501244 0.161791 0  0.505431 0.112984 0  0.505344 0.14029 0  0.526563 0.119081 0  0.5181750000000001 0.131908 0  0.539868 0.136937 0  0.460937 0.108383 0  0.474242 0.114415 0  0.460937 0.0810483 0  0.487841 0.167168 0  0.526563 0.0612217 0  0.526563 0.106406 0  0.537619 0.112743 0  0.58125 0.1 0  0.559375 0.1 0  0.482812 0.08105569999999999 0  0.471883 0.0587655 0  0.570312 0.129396 0  0.548437 0.07598340000000001 0  0.504687 0.08105569999999999 0  0.49375 0.0470127 0  0.570312 0.112663 0  0.592798 0.12103 0  0.553986 0.12103 0  0.570312 0.0805201 0  0.48125 0 0  0.114787 0.2 0  0.160769 0.284765 0  0.175816 0.288361 0  0.162602 0.116048 0  0.154687 0.07598340000000001 0  0.176562 0.0805201 0  0.0598995 0.147547 0  0.307812 0.109924 0  0.291279 0.117157 0  0.278491 0.112989 0  0.285937 0.07598340000000001 0  0.307812 0.0805201 0  0.296928 0.196743 0  0.318141 0.218507 0  0.330208 0.227509 0  0.301397 0.225668 0  0.302706 0.241401 0  0.292574 0.21424 0  0.282762 0.230935 0  0.284351 0.244775 0  0.269553 0.23261 0  0.278572 0.217242 0  0.226924 0.342606 0  0.446928 0.185396 0  0.515625 0.3 0  0.504687 0.288879 0  0.515256 0.276534 0  0.529479 0.285328 0  0.58125 0.3 0  0.541969 0.272936 0  0.559375 0.3 0  0.556796 0.282529 0  0.543473 0.287206 0  0.581429 0.267774 0  0.566728 0.271171 0  0.570869 0.255585 0  0.577404 0.283865 0  0.603125 0.3 0  0.597531 0.28035 0  0.570312 0.338778 0  0.592188 0.292492 0  0.603513 0.256094 0  0.614063 0.286265 0  0.610329 0.27064 0  0.632708 0.251285 0  0.657223 0.261594 0  0.618789 0.257807 0  0.614188 0.22987 0  0.630935 0.265614 
[...]
<PointData  Vectors="v"> 
	<DataArray  type="Float64"  Name="v"  NumberOfComponents="3" format="ascii">
0.0 0.0 0.0 0.0 0.0 0.0 0.0 0.0 0.0 0.0 0.0 0.0 0.7916179905336822 -0.17717566057568027 0.0 0.848255048923437 0.2053186730245746 0.0 0.6429763481499439 0.020654984512317946 0.0 0.9619901265188598 0.025275607661741598 0.0 0.0 0.0 0.0 0.0 0.0 0.0 0.0 0.0 0.0 0.0 0.0 0.0 0.0 0.0 0.0 0.0 0.0 0.0 0.0 0.0 0.0 0.0 0.0 0.0 0.0 0.0 0.0 0.0 0.0 0.0 0.0 0.0 0.0 0.0 0.0 0.0 0.0 0.0 0.0 0.0 0.0 0.0 0.0 0.0 0.0 0.0 0.0 0.0 0.0 0.0 0.0 0.0 0.0 0.0 0.0 0.0 0.0 0.0 0.0 0.0 0.0 0.0 0.0 0.0 0.0 0.0 0.0 0.0 0.0 0.0 0.0 0.0 0.0 0.0 0.0 0.0 0.0 0.0 0.0 0.0 0.0 0.0 0.0 0.0 0.0 0.0 0.0 0.0 0.0 0.0 0.0 0.0 0.0 0.0 0.0 0.0 0.0 0.0 0.0 0.7660337074724929 0.01739384198460494 0.0 1.2344626584667096 0.28142643560142955 0.0 0.9480628676101518 -0.0433016314635916 0.0 0.0 0.0 0.0 1.2761593511244373 -0.06306530395579098 0.0 1.3306221858114837 0.0092631352817543 0.0 0.0 0.0 0.0 0.0 0.0 0.0 1.0 0.0 0.0 0.0 0.0 0.0 0.0 0.0 0.0 0.0 0.0 0.0 0.8424029659150061 -0.2117143370157378 0.0 1.1397731183643207 -0.29161363719752326 0.0 0.8755367095252891 0.23950073627218318 0.0 1.1906164912682617 0.29236141412376526 0.0 0.433480369997359 0.017910523213697082 0.0 0.22207746833624384 0.020626210475583828 0.0 0.18131816053913655 -0.008166095635705735 0.0 -0.05008700836918246 0.02176253252896523 0.0 -0.046475234773027285 0.1657375150735904 0.0 0.33468150855893597 -0.25809939376357155 0.0 0.8620590668389152 -0.6551546961257134 0.0 0.6409137229004067 -0.6737375925722627 0.0 1.2302574982108068 -0.5915621923451146 0.0 0.3125949277902171 0.009603166175571477 0.0 0.33989453728425495 0.29519287305215375 0.0 0.6690010109764275 0.6961334348028022 0.0 1.2544769943276877 0.609216868741937 0.0 0.35898305027126 -0.013295987980415331 0.0 1.3021247231416015 0.147161136382069 0.0 -0.0069257751081481115 0.07711021941869967 0.0 1.2560037177312449 -0.16392838684794575 0.0 -0.014564797551521387 -0.020960952950169216 0.0 -0.03558304275537376 0.08291179540223538 0.0 1.2153980966794222 -0.39245768488090155 0.0 1.1140880024574793 -0.7168497782206187 0.0 0.8957452256711714 0.8001362078054733 0.0 1.294022707570131 0.4062957508218576 0.0 0.987331578580535 0.16477369808797956 0.0 -0.03759176355506761 0.13057784662593822 0.0 0.9164052915746321 -0.15707486107725374 0.0 -0.03121102159326009 -0.009516535850870624 0.0 -0.034766202080729475 0.13612714372703558 0.0 1.09306824227578 0.7472565053984765 0.0 0.4608058873635938 0.5584546617054035 0.0 0.6146743151922999 0.023864182705380328 0.0 0.16413200410374118 0.0837776666625982 0.0 0.5509345842551464 -0.02706985476571555 0.0 0.06245219969111716 0.006527374723343421 0.0 -0.12586803900555993 0.0887109049800908 0.0 0.9838031413326837 0.298456494308594 0.0 1.2758323396675375 0.21381066283121097 0.0 1.3595162293015435 0.16941569639644674 0.0 1.2105823835352743 -0.2338848003938155 0.0 1.2847925721501263 -0.18657539674637016 0.0 1.3688398777704394 0.23066645356546175 0.0 1.2991207304774057 -0.2382045783951913 0.0 0.4407109728448089 -0.5265774673137436 0.0 0.8034519298358083 -0.11938922765707669 0.0 0.6718551899060305 -0.3968479638549463 0.0 0.9112124464913354 0.6093516129701404 0.0 0.8083249814103927 0.15912571966979014 0.0 0.697090544317064 0.44073082110744866 0.0 1.1751609417496522 -0.20344936512791142 0.0 0.27898149918587034 0.03830309671635487 0.0 0.20840005554068405 0.0059398033637395875 0.0 -0.10073623975180934 0.051001296009340995 0.0 1.3392034621308087 0.4172353227537988 0.0 0.9993221091929261 0.044779246607561655 0.0 1.2840862481231414 -0.4237079833473214 0.0 0.8994240848176481 -0.049115724834170274 0.0 1.3797175298669329 0.3423724939590779 0.0 1.3009781009836476 0.32672090756644734 0.0 1.3174228720271328 -0.3488348346613965 0.0 1.2477456996656082 -0.3170189589140597 0.0 0.5858873692430338 -0.13821876345313117 0.0 0.7971219056191471 -0.3100928583720226 0.0 1.0572710017611564 0.6083328094075173 0.0 0.6019315575889885 0.17270025252698637 0.0 0.8295261412180899 0.34517216298653186 0.0 1.0639497974401328 -0.012526104132821155 0.0 0.8908254909447934 -0.002940323517047399 0.0 -0.06484314372078283 0.002524691516161186 0.0 1.3267307008519638 0.07212386914428637 0.0 0.9231330039670196 -0.2927729692860832 0.0 1.2717219085495823 -0.10612122764837056 0.0 0.5660696459630905 0.016656115237722164 0.0 0.4299112188503218 0.017371721121058736 0.0 -0.16796292769639945 -0.009461575405573327 0.0 1.0810586166410352 0.31596156051884816 0.0 0.9686547968470895 0.388728160297892 0.0 1.1690142405830506 0.03168371747409305 0.0 0.924030473075613 -0.030296728504429007 0.0 1.2850985862225541 0.05388942106203164 0.0 1.0200587132914893 -0.30672931996441927 0.0 1.0855337449580151 -0.5443228771788099 0.0 0.9303392033298868 -0.3643897786050902 0.0 1.0005509981394525 -0.4107748026353904 0.0 0.9361940410737004 -0.5205601115951061 0.0 0.866196098814145 -0.38348148323518993 0.0 1.3610781267615104 0.10496689395929777 0.0 1.2888116120145787 -0.13252779906246404 0.0 0.8505768580398181 -0.21547208858290157 0.0 0.8772553421726542 -0.28725798499967337 0.0 0.852201644562298 -0.27759478176717595 0.0 0.8446760094492762 -0.23316027796160316 0.0 0.8503503339284356 -0.23107521839622508 0.0 0.8930665348900365 -0.29463454838657266 0.0 1.3448267122210926 0.18760251107222367 0.0 1.2270240772590841 -0.23583304860598095 0.0 1.361527009363776 0.2595123322342554 0.0 1.2929343528682211 -0.19914882537226397 0.0 0.0 0.0 0.0 0.0 0.0 0.0 1.2973043371303403 -0.2666420530699387 0.0 0.7158426104460759 -0.2461597457280756 0.0 0.8206688993260515 -0.19082240065789544 0.0 0.8722519203771724 -0.09377669047394584 0.0 0.8626978832969098 -0.14556345212260807 0.0 0.9375 0.0 0.0 0.7500000000000001 0.0 0.0 0.7349213230531245 0.28383245350627895 0.0 0.8347581689278784 0.21374809003179782 0.0 0.7499999999999999 0.0 0.0 0.8767195840580777 0.14097202031827014 0.0 0.9318759953638145 0.05274790302219362 0.0 0.8529028531343702 0.060727279388696785 0.0 -0.12342240632465348 0.01568178876167733 0.0 -0.01980373676729869 -0.012768164057546248 0.0 1.1659403968571218 0.5424793432957522 0.0 1.0541421913310771 0.46582963092514934 0.0 0.8916513657432128 0.2490718731173953 0.0 1.333801077654757 0.01690140097104611 0.0 1.2923645598388358 -0.1168668273672752 0.0 0.5051984484934711 -0.00434605499379123 0.0 1.3249002780848422 -0.05739194221149313 0.0 1.0607625178062146 -0.05827236822623588 0.0 1.3300892329863128 -0.03275909901126525 0.0 0.9204557734840659 -0.16515186702952078 0.0 0.84830335956891 -0.08866103135768481 0.0 0.15887623518148947 -0.02376574237821512 0.0 1.2631571838903115 -0.13768483660288267 0.0 0.5095862191500078 -0.07262316227105374 0.0 0.43389929409585193 -0.20808244593973171 0.0 0.5863794330446018 -0.1514822664292946 0.0 1.0771169282102813 -0.27661610383280455 0.0 0.9317872409724834 -0.23207217137053154 0.0 1.2545846370345084 -0.17255413765042826 0.0 0.7396236339437736 0.0085535382297815 0.0 1.2459533339928164 -0.0658807904794222 0.0 0.050277737805947624 0.008460401873773159 0.0 1.148848979984571 0.06551370065991598 0.0 0.890745041338413 0.18648923843692683 0.0 0.6852611381606151 -0.14815841115285833 0.0 1.018728154906438 -0.04953941274645294 0.0 1.0001202993421814 -0.17637665069701414 0.0 0.8626605311186387 -0.16466963813860008 0.0 0.8782129953588439 -0.009629562802267443 0.0 0.4041793512239719 0.02247112453045586 0.0 0.19588371352153958 0.008393571757855978 0.0 1.265402198873324 -0.000153201306095214 0.0 0.16987103028159053 -0.051674910226009355 0.0 1.2734631619106633 -0.027112743274848188 0.0 0.10820228119296227 -0.025281500789063736 0.0 0.561185659325733 0.01643882062915696 0.0 -0.10636772955150865 -0.07804500524986886 0.0 0.6068425106102033 0.021639690909703888 0.0 0.8949518541640655 0.3031458088232167 0.0 0.9017967789247713 0.4188316328780551 0.0 0.8966577489705678 0.26174180349199644 0.0 0.9170490443312109 0.11915862767379728 0.0 0.8745180512821719 0.22272555722801965 0.0 0.9204980337704377 0.30247598558239974 0.0 0.8665891758877338 0.22935590448267637 0.0 0.8083246603705238 0.17762914312094832 0.0 0.873086584416904 0.1646663489468034 0.0 0.0 0.0 0.0 0.8475075828902079 0.17710890023897677 0.0 0.8790331616402994 0.18182747684639636 0.0 1.0535276541646772 -0.06426369679103194 0.0 1.3292948771240967 -0.1056381762803743 0.0 1.2201078732714583 -0.19966518943169098 0.0 0.9099401985119433 -0.3252813670708488 0.0 1.2048251098026481 0.023632935255902397 0.0 0.70875407933208 -0.15491834485648986 0.0 1.1015668460434636 -0.10204175453298292 0.0 1.069529500400108 0.006240983087175357 0.0 1.2733662137669062 0.024378575171194555 0.0 0.6473927684036065 -0.004875086746923918 0.0 1.2294690675542896 0.010553517231801547 0.0 1.0806313431118264 0.01598691534459039 0.0 -0.033770784561563065 -0.2249218693069468 0.0 -0.21930931928317374 -0.07785700466888397 0.0 0.9644436496390483 0.3318731460934889 0.0 1.1457729072728768 -0.28064286720134074 0.0 0.8374909322908074 -0.33314508384595015 0.0 0.0 0.0 0.0 1.1294378308503776 -0.11302782493637295 0.0 1.2956859174627842 -0.179894630341227 0.0 1.2119040656308449 -0.02236556067977029 0.0 0.887454247879523 -0.07618642293827785 0.0 0.41207222422222306 -0.0127114493629252 0.0 1.2505809371848546 0.03372759487783688 0.0 1.3025601048134938 0.15801499023039017 0.0 -0.013163413994561989 -0.14102195575671536 0.0 -0.21513164599548146 -0.05067296706108176 0.0 -0.20402634767001585 -0.13145406351189792 0.0 -0.16784484963485757 0.042910146263434215 0.0 1.161930900579146 0.12783316866201166 0.0 0.780615578937655 0.1825856407712829 0.0 0.7822553818443863 0.1520710605741448 0.0 0.7884152906956937 0.10824946621157291 0.0 0.6216491655733943 0.10681708593545376 0.0 0.7607661979791176 -0.2888438507279931 0.0 0.31969078035890547 -0.33292908691111484 0.0 0.6316126774537473 -0.3422577834062605 0.0 0.9488375105261361 -0.007114147596682521 0.0 0.0 0.0 0.0 0.6205870624776268 -0.03633866285616838 0.0 1.0774299685374005 0.029428840903294062 0.0 -0.23248696042741415 -0.2832499093752306 0.0 1.0919301955664966 0.19857559318073684 0.0 0.9041175152784308 0.11797129697192173 0.0 1.0352535863588257 -0.16661828725269226 0.0 0.23961705733209462 -0.1305360641636822 0.0 0.5992551750587516 -0.07997566579507277 0.0 0.2671152197177517 -0.17670142242141193 0.0 1.3022919054666884 0.10191704612145443 0.0 -0.24854621754784684 -0.17466558793237544 0.0 -0.20424424441582206 -0.2111491388616761 0.0 -0.2076077580250782 -0.30618535452229806 0.0 -0.0334645663695304 -0.18366294417099177 0.0 -0.14000037753564393 -0.42748812856096974 0.0 -0.21542445480590844 -0.37085570772565074 0.0 0.024298897612823587 -0.31480007197602605 0.0 0.0036211805587299684 -0.38422279071018467 0.0 -0.17973277834829388 -0.3970862870096439 0.0 0.24098901307679102 -0.4092339635249062 0.0 0.0008834003035266387 -0.29166001160277744 0.0 -0.08577388836418606 -0.3773118264885999 0.0 -0.15751243908360743 -0.43344759585400294 0.0 -0.005112033621563114 -0.43960546966177416 0.0 0.0 0.0 0.0 0.9483773885632991 0.22065093740569489 0.0 0.9522146295058691 0.04504482720942874 0.0 0.5506817783888729 -0.3687691575632315 0.0 0.33459019291852155 -0.06369896956712065 0.0 0.723697491845905 -0.03261662133306345 0.0 1.1351214468452353 0.06830929950233791 0.0 1.265760249346309 0.06899754191052056 0.0 1.1207771806622653 -0.1424116865389156 0.0 0.2893501869629825 -0.2024816213924306 0.0 -0.010404489752001471 -0.43984777421933524 0.0 0.01014585074467328 -0.24807661233418107 0.0 0.2937152217664733 -0.3964208243408289 0.0 0.14687303021376344 -0.35787236301464603 0.0 0.47420516435333726 -0.3190528727478639 0.0 0.5450461600341493 -0.1566485267767204 0.0 0.9071862132927595 -0.20468964598825942 0.0 0.420132100347285 -0.26062476889305497 0.0 0.7431053679032164 -0.2765641387793315 0.0 0.7321177453784301 -0.20851052747394871 0.0 0.938334478930917 -0.27198505514452276 0.0 0.1915345589362331 -0.237714942301217 0.0 0.9820123694918692 -0.11536911487384778 0.0 1.0093551827666947 -0.2031378272693872 0.0 1.1081234440242131 -0.19979940184398345 0.0 1.064707673053015 -0.24527790001782387 0.0 0.0971399113127979 -0.08092385445155532 0.0 0.9039798566326679 -0.12221332842478266 0.0 1.134629834601579 -0.2592552240237562 0.0 1.2287652953160475 -0.22859003581035775 0.0 0.2899444666700318 0.11146024446672796 0.0 0.3490377598970007 -0.14913989818291773 0.0 1.0273833598183437 0.08864383893549468 0.0 0.07795746919557991 -0.1549268326445853 0.0 0.1309905501877527 -0.15278408091936274 0.0 0.9381004075420986 0.022772424029835127 0.0 0.2334503455389806 0.15231326348632296 0.0 0.1637809721662701 -0.04853973578016903 0.0 0.571329118229417 0.16979292634612564 0.0 0.14183378157919085 0.012626210449269162 0.0 0.2930378435827128 0.174903188552616 0.0 0.22480427564199668 -0.01574780450468833 0.0 0.37270677858615925 0.284628916650803 0.0 0.8662532724422046 0.4769012325076132 0.0 0.5093900558380461 0.21940197669830186 0.0 0.5125241851178284 0.401531000870758 0.0 0.5090253422852967 0.34527571328336437 0.0 0.7513283177294615 0.34252616359824767 0.0 0.6770970344476086 -0.06892543285989997 0.0 0.9922648465703474 0.30496770316964056 0.0 0.28525046374231994 0.2165166316613503 0.0 0.5467142245565192 -0.3791333813282594 0.0 1.0327579078801674 -0.3110121923186545 0.0 0.4353323825118896 -0.10658952453412905 0.0 1.2925484143290755 0.12856516800501763 0.0 1.2162144126269583 0.17322684764295293 0.0 0.6750149283663774 0.023338793336218376 0.0 -0.030005823434866578 -0.3031042484376236 0.0 -0.06352920234244175 -0.38999660735962244 0.0 -0.012436807562410177 -0.30413432281751523 0.0 0.3141983482448925 -0.13538142643632659 0.0 -0.009312648023581973 -0.2752334191245317 0.0 0.18099146946986097 -0.10688439637473497 0.0 0.9468392243629965 0.07172012932351746 0.0 0.42705970288250655 -0.0569476058926809 0.0 0.5912974128785347 0.0685935701594531 0.0 0.7350325255896222 0.46265183112812297 0.0 0.3745897098012439 0.3076560509218424 0.0 0.5870227723541137 0.44027322674849106 0.0 0.4094060294893868 0.35312741965338973 0.0 0.5191783769712679 0.4142428566255916 0.0 0.8992503378438098 0.21667726179470684 0.0 0.6590538793460824 0.4682843597811927 0.0 0.7430779339733232 0.4258108626694836 0.0 0.6931691472529081 0.45826755333823715 0.0 0.5855260975242165 0.4422352466074857 0.0 0.7388780412253374 -0.009075963573924437 0.0 0.4260916671560868 0.0170058672641026 0.0 0.2817608408731865 0.09747657902328422 0.0 0.6486854872305492 -0.06731978169551683 0.0 0.19597277887396652 0.09457286030068845 0.0 0.5265913827586077 0.1916574750393491 0.0 0.8773859289147611 0.049420612232038974 0.0 0.8326324661195685 0.0006106408471979909 0.0 0.8615056540114496 -0.05972307873776391 0.0 0.34810819563954587 0.18073555460123036 0.0 0.3732906405022601 0.2789105133767749 0.0 0.4762461573908784 0.39059528611866184 0.0 0.42047794960342844 0.3590411472070775 0.0 0.4993060185034704 0.4060191015277954 0.0 0.6005306071120102 0.2472253941587814 0.0 0.5697450873998798 -0.0945861214421242 0.0 0.9310034202120848 0.038482729334506464 0.0 0.37698127065537435 -0.1606591797347396 0.0 0.6563295734428664 0.01021768969324749 0.0 0.13014572874817612 -0.2619601621721723 0.0 1.2047845596584932 0.017549357996987678 0.0 1.046606195786495 0.10968753300255665 0.0 1.073549311387318 -0.1479493961582124 0.0 0.9377362031320715 -0.04598019714135428 0.0 0.5208834409103854 0.42968995000464066 0.0 0.5875304517385047 0.3856827012681849 0.0 1.0572188755642042 0.17987155726759094 0.0 0.6562596505343196 0.10304423321467084 0.0 1.1781199345558142 0.04764065162817222 0.0 1.0160888874325407 -0.13395843359470325 0.0 0.9490002373364601 0.39385348767822537 0.0 0.9418950604952872 -0.001223218511692801 0.0 1.0087515384975558 0.11542327315022165 0.0 1.286768331046363 0.22680764783376234 0.0 0.9152022006452583 0.1827282034778748 0.0 1.2086927144555657 0.3244858389741414 0.0 1.2116940897123802 0.08238913759691012 0.0 0.9160145117473983 -0.10204536916451999 0.0 0.9583956675810132 0.03728589694963456 0.0 1.2192822238449643 0.2212498968100656 0.0 1.2956724835917677 0.308638184838076 0.0 1.3123779476183912 0.23971045342320357 0.0 1.0749398590686774 0.313120622710161 0.0 1.1617067834545736 0.3768706992842697 0.0 1.276115561167581 0.36115912508025605 0.0 1.2048684602842006 0.42312249977690913 0.0 0.9898601871805047 0.04751751567837452 0.0 0.0 0.0 0.0 1.1376833957794705 0.17090000890551466 0.0 1.1566051052395379 0.4235473119320357 0.0 1.0382193444343764 0.4368930148675639 0.0 1.1345686607758654 0.2220250713302611 0.0 1.2113895487826591 0.4268314449624302 0.0 1.1640522547852945 0.31103228688036083 0.0 1.1547136826666173 0.47443996788732734 0.0 0.9836565196175988 0.2750730630325184 0.0 1.045809770084933 0.4643457294275633 0.0 1.0041550383665134 0.5149539439163783 0.0 1.0792102446780172 0.35594358208210813 0.0 1.1120538664753634 0.47120649642265805 0.0 1.0105861693075024 0.32874318907485484 0.0 1.0668623538750075 0.4104090026090538 0.0 0.973906685603206 0.3573147832384346 0.0 1.2458904078829702 0.3361745299747025 0.0 1.2151247077905487 0.3727964880256151 0.0 1.0732477065479882 0.2497602965617415 0.0 0.9233588381833799 0.45720556690256575 0.0 0.6397448658151756 0.11449451303879107 0.0 0.9690274754766528 0.27775749904038916 0.0 0.9434803943189792 0.26509664662534205 0.0 0.7583521445265813 0.058831265761871525 0.0 0.8194705536974947 0.141351382290409 0.0 0.9910064869271834 0.24979871220708383 0.0 0.8189942530995352 0.15625809598501889 0.0 0.8523880007939473 0.19609735061796776 0.0 0.7115643717575918 0.10237316971618844 0.0 0.9123421176166969 0.22437119320875637 0.0 0.5613408270499636 0.10234871482057421 0.0 0.8248182609010493 0.1384639320865982 0.0 0.7713165437847447 0.07329599469884517 0.0 0.9031924192519605 0.23490435227154266 0.0 0.6953363888337166 0.050630177994477416 0.0 0.0 0.0 0.0 0.6502045863279021 0.014508050782385973 0.0 1.1131183596169627 0.4090071551020159 0.0 1.2094996512721947 0.3778191776096322 0.0 1.0848719787458208 -0.3904624492326499 0.0 0.8465923444451812 -0.19821392643094568 0.0 0.9561357104583947 -0.21603855717622691 0.0 0.892188858064416 -0.07214530925974051 0.0 1.2274060964461249 -0.008543371916132775 0.0 1.1382810795140201 -0.011673099471904346 0.0 1.2254765173241702 -0.03916524076111868 0.0 1.1496804894691801 -0.029915716985948703 0.0 1.1913137627325439 -0.006536409673612917 0.0 -0.1766642014716832 0.042599129512053184 0.0 -0.08810041005821091 -0.00679510380944597 0.0 0.04925923191397534 -0.10159232055598762 0.0 -0.009454478421506715 0.07450501050773199 0.0 0.23541288659684104 0.03438584639161014 0.0 -0.10480085419148578 0.09864410177020629 0.0 0.027174644516089478 0.13174701099530234 0.0 0.2241921578392142 0.07470327907288085 0.0 0.009053254413387102 0.15054738221156 0.0 -0.06931423797878418 0.13988253046055565 0.0 0.9811717926334401 0.08716620678481239 0.0 0.3655970572035576 -0.030629328876240338 0.0 0.9737861272384064 0.09316756157758925 0.0 0.8377900003267185 0.09635323848900479 0.0 0.634677414498066 0.12335125265104688 0.0 0.8225663273092443 0.13417599491099205 0.0 1.1809505154864608 -0.03942441319447685 0.0 0.6568733346147738 0.19487010208214486 0.0 1.110147409988343 0.04116082846763201 0.0 0.9019191754548896 0.135451570377061 0.0 0.9041045680224317 0.12696320593494215 0.0 0.8681646447721886 0.15936901861982503 0.0 0.7976391368585536 0.19248773251376938 0.0 0.6167426609200334 0.310616996676965 0.0 1.0516910934536663 0.056986005619245 0.0 1.2322755431048418 -0.13832608066374932 0.0 1.1504985213833199 -0.037015537098040285 0.0 0.9604882852290174 -0.04658509346700113 0.0 1.2011918899209935 -0.07015773252415923 0.0 0.9212626789916463 0.10609913601315821 0.0 1.2517144925913875 -0.17530709250657853 0.0 1.1428172281908824 -0.07286446317112151 0.0 1.1102890758580963 -0.15575138629458862 0.0 1.258788478009456 -0.38359193652778084 0.0 1.075764750028695 -0.05919899552418781 0.0 0.7429369766254927 0.2303647615471956 0.0 1.2190527603930579 -0.21976443499791457 0.0 0.9272347700817107 0.04481374225490389 0.0 1.097565038674646 -0.28449078139148715 0.0 0.9063387807611433 -0.07768889507512615 0.0 0.8995081614255663 -0.18083862470318807 0.0 1.2775475548748805 -0.2659