<?xml version="1.0"?>
<VTKFile type="UnstructuredGrid"  version="0.1"  >
<UnstructuredGrid>
<Piece  NumberOfPoints="1289" NumberOfCells="2413">
<Points>
<DataArray  type="Float64"  NumberOfComponents="3"  format="ascii">0 0 0  0 0.41 0  2.2 0.41 0  2.2 0 0  0.1 0.1 0  0.1 0.3 0  0.8 0.3 0  0.8 0.1 0  0.25 0.2 0  0.248976 0.210065 0  0.245948 0.219718 0  0.241038 0.228563 0  0.234448 0.23624 0  0.226448 0.242432 0  0.217365 0.246888 0  0.207571 0.249423 0  0.197468 0.249936 0  0.187467 0.248404 0  0.17798 0.24489 0  0.169395 0.239539 0  0.162062 0.232569 0  0.156283 0.224265 0  0.152293 0.214968 0  0.150257 0.205058 0  0.150257 0.194942 0  0.152293 0.185032 0  0.156283 0.175735 0  0.162062 0.167431 0  0.169395 0.160461 0  0.17798 0.15511 0  0.187467 0.151596 0  0.197468 0.150064 0  0.207571 0.150577 0  0.217365 0.153112 0  0.226448 0.157568 0  0.234448 0.16376 0  0.241038 0.171437 0  0.245948 0.180282 0  0.248976 0.189935 0  1.1 0 0  1.1 0.41 0  0.1 0.2 0  0.45 0.1 0  0.45 0.3 0  0.55 0 0  0.275 0.1 0  0.275 0.3 0  0.275 0 0  0.55 0.41 0  0 0.205 0  0.825 0 0  0.825 0.41 0  0.275 0.41 0  0.1 0.15 0  0.1875 0.1 0  0.1 0.25 0  0.1875 0.3 0  0.132322 0.2 0  0.241426 0.253518 0  0.241426 0.146482 0  0.264574 0.17974 0  0.264574 0.22026 0  0.138434 0.187348 0  0.153372 0.150948 0  0.148413 0.164094 0  0.176495 0.136535 0  0.22768 0.143571 0  0.138434 0.212652 0  0.148413 0.235906 0  0.176495 0.263465 0  0.22768 0.256429 0  0.23125 0.3 0  0.24769 0.24094 0  0.23125 0.1 0  0.24769 0.15906 0  0.26253 0.193641 0  0.190482 0.137872 0  0.166753 0.146661 0  0.157737 0.244461 0  0.190482 0.262128 0  0.203107 0.261264 0  0.253635 0.22977 0  0.203107 0.138736 0  0.253635 0.17023 0  0.261028 0.206206 0  0.167707 0.251809 0  0.143629 0.224191 0  0.215302 0.2591 0  0.270465 0.245894 0  0.215302 0.1409 0  0.270465 0.154106 0  0.284052 0.202587 0  0.14375 0.3 0  0.209375 0.3 0  0.225966 0.278501 0  0.209375 0.1 0  0.225966 0.121499 0  0.211613 0.273759 0  0.211613 0.126241 0  0.143629 0.175809 0  0.1 0.175 0  0.133484 0.164832 0  0.144491 0.249539 0  0.1 0.225 0  0.133484 0.235168 0  0.3625 0.3 0  0.25691 0.253381 0  0.25691 0.146619 0  0.277205 0.188698 0  0.184724 0.275712 0  0.237372 0.268285 0  0.184724 0.124288 0  0.237372 0.131715 0  0.197578 0.273149 0  0.193656 0.286994 0  0.197578 0.126851 0  0.193656 0.113006 0  0.122953 0.187671 0  0.118362 0.153758 0  0.155372 0.258107 0  0.122953 0.212329 0  0.118362 0.246242 0  0.276394 0.27264 0  0.276394 0.12736 0  0.280965 0.170013 0  0.253125 0.3 0  0.14375 0.1 0  0.253125 0.1 0  0.269489 0.26014 0  0.269489 0.13986 0  0.303639 0.184297 0  0.165625 0.3 0  0.134742 0.273113 0  0.257831 0.274737 0  0.255279 0.128499 0  0.3625 0.1 0  0.165625 0.1 0  0.162031 0.132368 0  0.134955 0.126405 0  0.149334 0.125568 0  0.142936 0.139597 0  0.12695 0.140259 0  0.242514 0.285501 0  0.242514 0.114499 0  0.1 0.125 0  0.117483 0.12555 0  0.11154 0.139776 0  0.121875 0.1 0  0.109143 0.1125 0  0.126805 0.114 0  0.220313 0.29129 0  0.351562 0.287369 0  0.207222 0.2866 0  0.220312 0.10871 0  0.1375 0 0  0.20625 0 0  0.207222 0.1134 0  0.11722 0.17118 0  0.1 0.1625 0  0.0778409 0.16875 0  0.0862762 0.15625 0  0 0.15375 0  0 0.1025 0  0.11722 0.22882 0  0.1 0.2375 0  0 0.3075 0  0.0862762 0.23125 0  0.0598995 0.222547 0  0.0860223 0.2125 0  0.289584 0.181469 0  0.300267 0.16446 0  0.163832 0.269071 0  0.149597 0.273325 0  0.1 0.275 0  0.268498 0.285953 0  0.31875 0.3 0  0.294154 0.254672 0  0.296875 0.3 0  0.293558 0.271845 0  0.285095 0.286799 0  0.324298 0.264316 0  0.307866 0.263745 0  0.317093 0.234901 0  0.315485 0.281219 0  0.316547 0.250625 0  0.344693 0.243731 0  0.331592 0.251147 0  0.35129 0.270663 0  0.338689 0.263683 0  0.340625 0.3 0  0.249849 0.264383 0  0.265097 0.11422 0  0.284688 0.156136 0  0.242188 0.324017 0  0.0856613 0.2625 0  0.132812 0.0612217 0  0.264062 0.0612217 0  0.198437 0.07598340000000001 0  0.0860223 0.1375 0  0.0794526 0.191089 0  0.285228 0.140397 0  0.298655 0.148737 0  0.31875 0.1 0  0.327335 0.15374 0  0.296875 0.1 0  0.312289 0.155283 0  0.313348 0.135607 0  0.321802 0.173916 0  0.298433 0.134116 0  0.112124 0.2625 0  0.127526 0.259083 0  0.121875 0.3 0  0.0682687 0.241503 0  0.1 0.2875 0  0.117762 0.28125 0  0.107813 0.3 0  0.103906 0.313849 0  0.0778409 0.28125 0  0.1375 0.41 0  0.0862762 0.29375 0  0.08886860000000001 0.24375 0  0.307812 0.338778 0  0.307812 0.292227 0  0.33216 0.279164 0  0.387888 0.266414 0  0.264063 0.31948 0  0.110937 0.07598340000000001 0  0.242188 0.07598340000000001 0  0.319914 0.11839 0  0.340625 0.1 0  0.334448 0.133793 0  0.329687 0.108539 0  0.346259 0.118491 0  0.360334 0.173636 0  0.327539 0.205033 0  0.132812 0.288712 0  0.362436 0.278836 0  0.368105 0.259418 0  0.4125 0.41 0  0.329687 0.324017 0  0.329687 0.292306 0  0.285938 0.318952 0  0.417187 0.338778 0  0.324481 0.14148 0  0.351562 0.106771 0  0.40625 0.1 0  0.341028 0.168342 0  0.319221 0.190479 0  0.335292 0.184501 0  0.305563 0.20794 0  0.220313 0.31948 0  0.132812 0.332772 0  0.0865876 0.311259 0  0.0598995 0.302453 0  0.0906541 0.343255 0  0.353543 0.255837 0  0.36574 0.237633 0  0.405007 0.254279 0  0.275795 0.352123 0  0.4125 0 0  0.35493 0.137394 0  0.366563 0.120618 0  0.35917 0.205246 0  0.198438 0.318952 0  0.0626109 0.263892 0  0.40625 0.3 0  0.354809 0.155936 0  0.386512 0.146872 0  0.373101 0.159939 0  0.384375 0.1 0  0.343394 0.19929 0  0.350682 0.185683 0  0.368101 0.189748 0  0.344016 0.221511 0  0.391108 0.213329 0  0.376279 0.204783 0  0.398843 0.182768 0  0.375804 0.222746 0  0.390665 0.196958 0  0.394004 0.23518 0  0.359883 0.222828 0  0.419908 0.204359 0  0.404243 0.204783 0  0.412615 0.224526 0  0.20625 0.41 0  0.165625 0.325257 0  0.0347982 0.244954 0  0.379558 0.247154 0  0.34165 0.147603 0  0.372264 0.136992 0  0.388988 0.121989 0  0.373437 0.108554 0  0.351562 0.31948 0  0.391367 0.16527 0  0.399572 0.223324 0  0.452011 0.227371 0  0.40877 0.239392 0  0.431491 0.237337 0  0.421224 0.250459 0  0.449619 0.262098 0  0.418865 0.276779 0  0.437063 0.252274 0  0.415673 0.263227 0  0.430988 0.266772 0  0.402767 0.273419 0  0.452967 0.244883 0  0.428125 0.3 0  0.408502 0.286186 0  0.384375 0.3 0  0.392267 0.285807 0  0.465927 0.219339 0  0.43489 0.283846 0  0.376424 0.286289 0  0.625 0.3 0  0.473533 0.205186 0  0.461713 0.255517 0  0.5375 0.3 0  0.465725 0.235405 0  0.44631 0.201425 0  0.471875 0.3 0  0.494307 0.227729 0  0.459448 0.206736 0  0.462294 0.180792 0  0.478933 0.227536 0  0.486793 0.21381 0  0.486322 0.251373 0  0.50065 0.215318 0  0.54005 0.175389 0  0.474633 0.189893 0  0.512916 0.208697 0  0.49531 0.199967 0  0.475889 0.175275 0  0.625 0.1 0  0.459311 0.153933 0  0.513645 0.242704 0  0.392892 0.248539 0  0.374815 0.271913 0  0.365974 0.14871 0  0.395312 0.109184 0  0.417061 0.123981 0  0.483196 0.277003 0  0.381967 0.179632 0  0.429898 0.219374 0  0.433473 0.206165 0  0.43149 0.181038 0  0.444208 0.215487 0  0.472985 0.247309 0  0.49375 0.3 0  0.475579 0.262714 0  0.49916 0.274293 0  0.501175 0.184809 0  0.514164 0.225681 0  0.543648 0.214977 0  0.5341630000000001 0.23481 0  0.527396 0.216171 0  0.5375 0.1 0  0.534548 0.202315 0  0.561545 0.192513 0  0.5494289999999999 0.201221 0  0.570923 0.218346 0  0.412582 0.149833 0  0.489327 0.264745 0  0.502439 0.254775 0  0.462391 0.271166 0  0.496775 0.241732 0  0.5294410000000001 0.268606 0  0.482812 0.291099 0  0.46879 0.285038 0  0.452663 0.284065 0  0.51789 0.257882 0  0.53408 0.252026 0  0.560142 0.243543 0  0.545708 0.243474 0  0.547532 0.229019 0  0.55282 0.265323 0  0.398971 0.153424 0  0.400349 0.135684 0  0.410135 0.168145 0  0.428823 0.161323 0  0.415266 0.183779 0  0.329687 0.0810483 0  0.395312 0.0612217 0  0.373437 0.318952 0  0.439062 0.324017 0  0.561816 0.229354 0  0.585029 0.239287 0  0.431827 0.139854 0  0.446796 0.168929 0  0.351562 0.07598340000000001 0  0.395313 0.318944 0  0.54337 0.150762 0  0.460937 0.31948 0  0.418412 0.137529 0  0.428125 0.1 0  0.442783 0.152332 0  0.450742 0.134294 0  0.373437 0.0805201 0  0.384383 0.342558 0  0.482812 0.318952 0  0.429239 0.127457 0  0.444274 0.117405 0  0.426548 0.113815 0  0.49375 0.1 0  0.488954 0.113984 0  0.457973 0.121842 0  0.471621 0.137346 0  0.515625 0.325257 0  0.48125 0.41 0  0.417187 0.07598340000000001 0  0.496363 0.126778 0  0.479043 0.155715 0  0.439062 0.0805201 0  0.481795 0.126919 0  0.471875 0.1 0  0.489227 0.142159 0  0.515625 0.1 0  0.520062 0.147117 0  0.501244 0.161791 0  0.505431 0.112984 0  0.505344 0.14029 0  0.526563 0.119081 0  0.5181750000000001 0.131908 0  0.539868 0.136937 0  0.460937 0.108383 0  0.474242 0.114415 0  0.460937 0.0810483 0  0.487841 0.167168 0  0.526563 0.0612217 0  0.526563 0.106406 0  0.537619 0.112743 0  0.58125 0.1 0  0.559375 0.1 0  0.482812 0.08105569999999999 0  0.471883 0.0587655 0  0.570312 0.129396 0  0.548437 0.07598340000000001 0  0.504687 0.08105569999999999 0  0.49375 0.0470127 0  0.570312 0.112663 0  0.592798 0.12103 0  0.553986 0.12103 0  0.570312 0.0805201 0  0.48125 0 0  0.114787 0.2 0  0.160769 0.284765 0  0.175816 0.288361 0  0.162602 0.116048 0  0.154687 0.07598340000000001 0  0.176562 0.0805201 0  0.0598995 0.147547 0  0.307812 0.109924 0  0.291279 0.117157 0  0.278491 0.112989 0  0.285937 0.07598340000000001 0  0.307812 0.0805201 0  0.296928 0.196743 0  0.318141 0.218507 0  0.330208 0.227509 0  0.301397 0.225668 0  0.302706 0.241401 0  0.292574 0.21424 0  0.282762 0.230935 0  0.284351 0.244775 0  0.269553 0.23261 0  0.278572 0.217242 0  0.226924 0.342606 0  0.446928 0.185396 0  0.515625 0.3 0  0.504687 0.288879 0  0.515256 0.276534 0  0.529479 0.285328 0  0.58125 0.3 0  0.541969 0.272936 0  0.559375 0.3 0  0.556796 0.282529 0  0.543473 0.287206 0  0.581429 0.267774 0  0.566728 0.271171 0  0.570869 0.255585 0  0.577404 0.283865 0  0.603125 0.3 0  0.597531 0.28035 0  0.570312 0.338778 0  0.592188 0.292492 0  0.603513 0.256094 0  0.614063 0.286265 0  0.610329 0.27064 0  0.632708 0.251285 0  0.657223 0.261594 0  0.618789 0.257807 0  0.614188 0.22987 0  0.630935 0.265614 
[...]
<PointData  Vectors="v"> 
	<DataArray  type="Float64"  Name="v"  NumberOfComponents="3" format="ascii">
0.0 0.0 0.0 0.0 0.0 0.0 0.0 0.0 0.0 0.0 0.0 0.0 0.7975414394932917 -0.18443931505312167 0.0 0.8420268065249467 0.1985347428341383 0.0 0.9799169928807773 -0.23026171935743506 0.0 0.49417544102004857 -0.08092088278246287 0.0 0.0 0.0 0.0 0.0 0.0 0.0 0.0 0.0 0.0 0.0 0.0 0.0 0.0 0.0 0.0 0.0 0.0 0.0 0.0 0.0 0.0 0.0 0.0 0.0 0.0 0.0 0.0 0.0 0.0 0.0 0.0 0.0 0.0 0.0 0.0 0.0 0.0 0.0 0.0 0.0 0.0 0.0 0.0 0.0 0.0 0.0 0.0 0.0 0.0 0.0 0.0 0.0 0.0 0.0 0.0 0.0 0.0 0.0 0.0 0.0 0.0 0.0 0.0 0.0 0.0 0.0 0.0 0.0 0.0 0.0 0.0 0.0 0.0 0.0 0.0 0.0 0.0 0.0 0.0 0.0 0.0 0.0 0.0 0.0 0.0 0.0 0.0 0.0 0.0 0.0 0.0 0.0 0.0 0.0 0.0 0.0 0.0 0.0 0.0 0.7658969204284469 0.0017634185068453692 0.0 1.1537772943258147 0.023330713843836153 0.0 1.073253848235482 -0.28139567617192285 0.0 0.0 0.0 0.0 1.2720067732449238 -0.013460499099330973 0.0 1.3331757112365943 0.07410446215612508 0.0 0.0 0.0 0.0 0.0 0.0 0.0 1.0 0.0 0.0 0.0 0.0 0.0 0.0 0.0 0.0 0.0 0.0 0.0 0.8475145742894559 -0.22479453122153195 0.0 1.1540418584392391 -0.27993371359076685 0.0 0.8698917448079032 0.2268268124906122 0.0 1.1755119453392304 0.30795020349819935 0.0 0.433310781814708 0.002915243722466689 0.0 0.1660800136567332 0.027372835203168074 0.0 0.2290337795960086 -0.0037231020929185967 0.0 -0.059859723419071885 -0.014192715744291264 0.0 -0.03912533631360408 0.1229926880222635 0.0 0.33776975071248044 -0.2740938557055647 0.0 0.8742364185052709 -0.6640592653737956 0.0 0.6507727354375471 -0.6877539386554526 0.0 1.251495113339553 -0.5930523888538863 0.0 0.3656783089885876 0.021801484921880433 0.0 0.33636568482118706 0.27883483665974174 0.0 0.6583941955064999 0.6819010819666029 0.0 1.2310989545817181 0.6085239466127116 0.0 0.2949024716695602 0.0014391906547656535 0.0 1.2925137955240522 0.18527463450223416 0.0 -0.022642866121862955 0.05199185259067382 0.0 1.2655500750970727 -0.1343378028387964 0.0 0.0002596996986857973 -0.05017716033649008 0.0 -0.042295941539315755 0.025797280615435927 0.0 1.2572643685525646 -0.3961332966835997 0.0 1.1357649201630027 -0.7263716556122782 0.0 0.8789704955813847 0.7864878532561513 0.0 1.2444177937664391 0.402488025417494 0.0 0.9206431794099372 0.16644005492349057 0.0 -0.03311980665241167 0.079261618772966 0.0 0.9719891965544543 -0.1557500133055948 0.0 -0.03916296923028424 -0.06238408910917877 0.0 -0.030538936977592586 0.07272361796863937 0.0 1.0697169278366723 0.7353807032238703 0.0 0.45261382943497225 0.5420424397103984 0.0 0.544875570324185 0.03249816589233087 0.0 0.08974108434046424 0.08366548123734104 0.0 0.6089106730850009 -0.019853477863251003 0.0 0.1310157008652804 -0.002487909277889234 0.0 -0.1185314182783891 0.12291498093988651 0.0 0.972245985259457 0.29919509638710345 0.0 1.2610010957133722 0.241428395973421 0.0 1.314623170065142 0.20081010479246286 0.0 1.2234422559592473 -0.21313346022899107 0.0 1.3213242339008977 -0.16173122356807013 0.0 1.3211411845813916 0.25350623619871426 0.0 1.3384673256951969 -0.22015325166291919 0.0 0.4484137091945446 -0.5427618783279612 0.0 0.8062518719416321 -0.13476695556165033 0.0 0.6790364322919406 -0.41053689669601895 0.0 0.8976025459837614 0.5985770578966443 0.0 0.8049866522923166 0.14383869709087652 0.0 0.6887118750156076 0.42635705108446303 0.0 1.3394665058765962 -0.1640723562416927 0.0 0.1919564935491357 0.03688961206026624 0.0 0.2879874253387532 0.002596130311335451 0.0 -0.1065489479863595 0.05660485114265968 0.0 1.3130775110817372 0.42946853208796176 0.0 0.9013599773336826 0.06638866732702112 0.0 1.3062968194636984 -0.41530029273745905 0.0 0.9777562378049147 -0.03127982943174201 0.0 1.3457440757291623 0.36030169562677383 0.0 1.2800932718266544 0.3450992464347712 0.0 1.3462515976968632 -0.3349938021142308 0.0 1.266202372145951 -0.3025692031356132 0.0 0.5888768651350617 -0.15408179534086344 0.0 0.8036117118536058 -0.3231977643195854 0.0 1.0395878944329293 0.6023025543155742 0.0 0.5983888568278009 0.15671750152637687 0.0 0.8222479752756992 0.3321798365352873 0.0 0.9204132917054759 0.0412902629274618 0.0 1.0044567328729161 0.039785316382068066 0.0 -0.05708153786921232 0.027512051656656253 0.0 1.3218295039700914 0.1221650769759875 0.0 0.9339828362133672 -0.2941935700991614 0.0 1.275404039750074 -0.06668590397043006 0.0 0.42777480407727336 0.03765111939153592 0.0 0.5521529645020432 0.0348437933773172 0.0 -0.17372710190202206 0.13794309993278722 0.0 1.0673125047884113 0.32345411907593224 0.0 0.9567778159670448 0.3829606146916162 0.0 1.0649407448908266 0.06823513456391575 0.0 1.0131403787588922 -0.006753443872908552 0.0 1.1404834663380325 0.07367439051904856 0.0 1.032922329801012 -0.3020858404019077 0.0 1.1019851845877244 -0.5474201044616118 0.0 0.9415079293653654 -0.3707087381672731 0.0 1.0141593090043906 -0.4137981280868055 0.0 0.9486264164373214 -0.5294860672749324 0.0 0.8752487915707872 -0.394070356003433 0.0 1.3289200398339016 0.1490728946904342 0.0 1.3153084080974675 -0.09846128637586898 0.0 0.8565795597107567 -0.22580230920251187 0.0 0.8855993428324934 -0.2960433133618107 0.0 0.8593135488904551 -0.2888080376023774 0.0 0.8533064491464206 -0.23799959047570082 0.0 0.8577780449015039 -0.23894578086533408 0.0 0.9025117520150283 -0.30061488996847874 0.0 1.3271823473051074 0.22228928170107978 0.0 1.3287937416990887 -0.12609981516542834 0.0 1.3387364640222204 0.28597336770307225 0.0 1.3083754690732108 -0.17157272010895946 0.0 0.0 0.0 0.0 0.0 0.0 0.0 1.3163681663156837 -0.24562663185504216 0.0 0.7200669854784292 -0.2610423662181643 0.0 0.8248610845080817 -0.20500667662032265 0.0 0.8739898667762688 -0.10781488929232852 0.0 0.8660411179167548 -0.1591129349129567 0.0 0.9375 0.0 0.0 0.7500000000000001 0.0 0.0 0.7301720043430996 0.26886735516045335 0.0 0.8301086142100339 0.19967755122215342 0.0 0.7499999999999999 0.0 0.0 0.8738797716462903 0.12663606316033016 0.0 0.9307126782591356 0.04063801381184073 0.0 0.8517181020736382 0.04559722062141525 0.0 -0.13136461439195343 0.08163244029745657 0.0 -0.004484951465146888 0.09792132559551778 0.0 1.1466461508637247 0.5418757374349329 0.0 1.0390272604075974 0.46250920627809045 0.0 0.8854711575166156 0.23900976406017949 0.0 1.2835753170171273 0.07680158694147965 0.0 1.3477366587392785 -0.02825462885491473 0.0 0.3472474279124492 0.07638296635304109 0.0 1.3461268457473174 0.024337860991103667 0.0 0.8925274311215698 0.026654959433566296 0.0 1.2776749270585321 0.0454485460581642 0.0 0.7464023334951977 0.02160539514879669 0.0 0.6500242928368056 0.04364175368644802 0.0 0.13455320226548037 0.17486970907362692 0.0 1.1888049932919857 -0.01109317162823259 0.0 0.37507610677496495 0.10473574428775251 0.0 0.40317994165727206 0.10208360877526318 0.0 0.46762662144757594 0.08937080076143672 0.0 1.050572992646689 -0.08374007646765945 0.0 0.803817465645203 -0.006003650081635752 0.0 1.3598695779831758 -0.09295298959281989 0.0 0.6271724723948485 0.028284994640173866 0.0 1.2847308007410494 -0.022032967591522616 0.0 0.12353721065689591 0.04408015612115935 0.0 1.1550105877434615 0.10299285979903679 0.0 0.8863881487030526 0.17495998666368867 0.0 0.6939428682018877 -0.14888257322713755 0.0 1.001784089183354 -0.02312048548505892 0.0 1.007887998523633 -0.16301744492987305 0.0 0.8668477988199768 -0.17620237485494417 0.0 0.8784514494937569 -0.024300991600357248 0.0 0.5501201300802051 0.06446719780955992 0.0 0.310135140145839 0.09552883019660353 0.0 1.215787925258491 0.06858706990868889 0.0 0.18781498601997607 0.1759549402146292 0.0 1.2572020640898767 0.03543353126816704 0.0 0.15642186284199053 0.140345751851903 0.0 0.71100498189125 0.13468729280742917 0.0 -0.14025703542937878 0.18085767508002176 0.0 0.7648189795431624 0.10497076376339293 0.0 0.8869266877528255 0.29278497263662406 0.0 0.8919017334854704 0.4084387959625988 0.0 0.8882793312602805 0.25773444594384215 0.0 0.9148004035920794 0.10666514919989561 0.0 0.8684239123566546 0.2149885982794385 0.0 0.9116423180183973 0.2951109937876754 0.0 0.8594304963221714 0.22325004174006685 0.0 0.8019472634376998 0.17325312943863933 0.0 0.8688170603598959 0.15516080609136432 0.0 0.0 0.0 0.0 0.8428106238317987 0.1690078426355596 0.0 0.8751393367576531 0.1686412158331157 0.0 1.1117762492858057 -0.023172456201265165 0.0 1.3308351564488043 -0.00042002035840218695 0.0 1.174638054983254 -0.04690271840378599 0.0 1.1232498799044344 -0.25473517307607757 0.0 1.2203135581337372 0.07160902979336052 0.0 0.7152962129636753 -0.15904197571276205 0.0 1.0983841181993852 -0.07547938368079067 0.0 1.1129220248522171 0.11360807767565048 0.0 1.1810944100487626 0.08141867811807287 0.0 0.7356974878281392 0.16327546581769614 0.0 1.1851841976937476 0.0982938364488209 0.0 1.040999325282966 0.12563017435471918 0.0 -0.17340425957421485 0.212409603610458 0.0 -0.18085802041255258 0.23132698539385985 0.0 0.9535110419605268 0.328352748065756 0.0 1.2528684028375874 -0.16102059697902668 0.0 0.8781181983011745 -0.10135902117859463 0.0 0.0 0.0 0.0 1.219830179860293 -0.0654654040801808 0.0 1.3470380022024553 -0.06536252057658255 0.0 1.2425007173948979 0.03420178440488305 0.0 0.9716802676178211 -0.17192504643039572 0.0 0.5210180571329883 0.15953473755408212 0.0 1.1428972548207765 0.09166043261065017 0.0 1.1135045265797228 0.030943267932815734 0.0 -0.09434431722667963 0.21175326329317237 0.0 -0.21369967829965839 0.19659238146419541 0.0 -0.22234026480001076 0.22223204096097224 0.0 -0.14482010358146807 0.19236307450881776 0.0 1.1571813763934118 0.15799624830024758 0.0 0.7734997840055924 0.1830271409692376 0.0 0.7777449320656433 0.14591618919914004 0.0 0.7860010195066262 0.10085491978017136 0.0 0.617151413379604 0.10325327939732443 0.0 0.7046196646372532 -0.008942618747198067 0.0 0.41059787790264507 0.04081760358332305 0.0 0.9608630893373918 -0.32447750246619456 0.0 0.9826116050217655 0.02333624355748465 0.0 0.0 0.0 0.0 0.5890737418704047 0.16723788739728407 0.0 0.9548272327100649 0.11474675909920297 0.0 -0.15244198564112338 0.2012158803871494 0.0 1.0841133915339778 0.21795083976574034 0.0 0.9017072959331197 0.10766999660979608 0.0 1.2415566543681804 -0.277113248910326 0.0 0.10889925326948055 0.2005800612276641 0.0 0.27442101673903396 0.11385846094908862 0.0 0.013390723613990274 0.17499090868086534 0.0 1.1208600749849038 0.05291832396578046 0.0 -0.21422081527967285 0.23773283274190066 0.0 -0.24215859338183782 0.23121492221032022 0.0 -0.24912533650246796 0.19684381431869555 0.0 0.02376079868754628 0.20266567990216694 0.0 0.0874966487786776 -0.016018753416650492 0.0 -0.11096824684263877 0.12409957337708234 0.0 -0.2114053332239449 0.03239197363775871 0.0 0.17575917302065788 0.05076084158907172 0.0 -0.15188311279151026 0.05395169899171638 0.0 0.5241996920867792 -0.1439828366073738 0.0 0.11527454018704412 0.14649570729385344 0.0 0.08292556647216844 -0.21948316124303524 0.0 0.00750004010324946 -0.0909372025009239 0.0 0.3999744175332043 -0.2506234854185013 0.0 0.0 0.0 0.0 0.9391937760526241 0.22824498736634546 0.0 0.9518390773341565 0.03725785862262348 0.0 0.683538265405966 -0.1007772371345186 0.0 0.3286181928974328 0.1896445810699783 0.0 0.5551359221678461 0.13779706752182652 0.0 0.881532354746711 0.07819426799254275 0.0 1.092728152348065 0.07641900955541511 0.0 1.2427141314708883 -0.11375370835742588 0.0 -0.08563015446008572 0.10176646231395871 0.0 0.31634468745739736 -0.13406326205677654 0.0 0.5868547249687948 -0.4745105516025496 0.0 0.6808569737784161 -0.29223277551885873 0.0 0.7272495490297354 -0.43132659287573166 0.0 0.9326542824972973 -0.4069837138108964 0.0 1.037137014095695 -0.44597085750181004 0.0 1.2218577133751893 -0.3777754969275133 0.0 0.9664784040512426 -0.4612784908678796 0.0 1.1175025644986025 -0.3972355303791429 0.0 1.1305784232813236 -0.42941323446068946 0.0 1.229728556883612 -0.3409224581516915 0.0 0.850807056448045 -0.4797386540100683 0.0 1.159088427254438 -0.29455520307179234 0.0 1.2679819764580726 -0.330891939963273 0.0 1.3093725584902562 -0.22691338234304922 0.0 1.311807667001771 -0.28468541510028905 0.0 0.4774717536569711 -0.48122298983282835 0.0 1.164849816878866 -0.367079472772291 0.0 1.3310338620673214 -0.22840551595620198 0.0 0.7501481484971666 0.13506527903761806 0.0 0.2768880562240906 -0.4761397711498718 0.0 0.9427079247840204 -0.4415437842465517 0.0 0.8264504117682435 -0.012129356533695106 0.0 0.71085436026428 -0.4788601988835494 0.0 0.15819047767627673 -0.3802656265258019 0.0 0.9865514695514856 -0.23709862134557058 0.0 0.5515635317607452 -0.4247749124373496 0.0 0.2844948821471129 -0.45062036023574376 0.0 0.02662070422820311 -0.3908954815742226 0.0 0.5873860646738621 -0.46195055783649247 0.0 0.383405134479767 -0.4751639369323724 0.0 0.8250381922847979 -0.3736111553742336 0.0 0.36900391030188834 -0.4627566876342919 0.0 0.6804692743402487 -0.02323767974542324 0.0 0.10799001407655921 -0.4572773574452717 0.0 0.2709115505598541 -0.4649951069066572 0.0 0.21200681751757866 -0.49319135319091695 0.0 0.12252117507690902 -0.39448163557936844 0.0 0.8937777579428976 0.1940186903181014 0.0 0.30944149130634097 -0.20338367909497643 0.0 0.63412945929237 -0.3039580126938187 0.0 0.7878789583187664 -0.21508029073957044 0.0 1.17146125686524 -0.2020685100203612 0.0 0.2590843779008298 0.17617707726071413 0.0 1.0576337337498618 0.042274884139205195 0.0 0.816300126676777 0.011243023603670474 0.0 0.9543475302109516 -0.2881783978450812 0.0 -0.22973874326074145 0.13830337728717984 0.0 0.382774130408471 -0.36544899678907833 0.0 0.1771477166913655 -0.3266978712667081 0.0 -0.10989761254711163 -0.2221045871498419 0.0 0.3676130706000495 -0.4235369904323369 0.0 0.8339794504586997 -0.43731316576791956 0.0 0.9167434664390345 -0.17011253980695004 0.0 0.9404325883269617 -0.37314656866942153 0.0 0.8914488959563267 -0.23331537350832007 0.0 0.2261376029201042 -0.4183893276364231 0.0 0.4280184085123747 -0.39900727991574475 0.0 0.3315181486870727 -0.2757824481028317 0.0 0.4108847939031732 -0.3138994276037354 0.0 0.3041918795545692 -0.4040088849259157 0.0 1.2093122428581797 0.2404922336705747 0.0 0.3402661863575552 -0.29881046505029485 0.0 0.6349790197429136 0.07377450746973778 0.0 0.4502178345002643 -0.13250566954159895 0.0 0.45381352720233864 0.0025719084630992407 0.0 0.2132733039628103 0.006817795359701543 0.0 0.8942273696807809 -0.31003083677479426 0.0 0.7867384719877496 -0.29077043083080223 0.0 1.0288205351598942 -0.3802973083983497 0.0 0.6992952759300602 -0.3673674519977267 0.0 0.7583144707643953 -0.12207981190575551 0.0 0.9618771700003479 -0.23646417327863048 0.0 1.0192373088865199 -0.3039522146096125 0.0 1.0883714223852485 -0.3441800044805818 0.0 0.739570384043703 -0.2110704510438206 0.0 0.6000926259277684 -0.20040379704193392 0.0 0.37503776506591036 -0.16647109493980575 0.0 0.42887464614693405 -0.2357173325462258 0.0 0.3391478317871886 -0.2714740528059784 0.0 0.6075535554980754 -0.0881063821728921 0.0 0.127011580707104 0.0672322030094484 0.0 0.5414627281824637 0.06168268367029432 0.0 -0.10796103625621961 -0.013039312253016683 0.0 0.0294487180866791 -0.11003461558969731 0.0 -0.15715531402714258 -0.09256311122032522 0.0 1.1277367082145817 0.05272342245853411 0.0 0.9784745468773042 0.038415208217363384 0.0 1.2201054029382044 -0.16709856673057702 0.0 1.0021714899787002 -0.21061745452168867 0.0 0.3600662920755212 -0.14458208777844658 0.0 0.4260226493007314 0.041983331428204505 0.0 0.4743820781314339 -0.05003393723975537 0.0 0.002790471755390124 -0.24543829193735697 0.0 1.0811578817799863 0.05374524108330092 0.0 1.167182364493295 -0.20670897493245144 0.0 1.048778523375264 0.1942970651025765 0.0 0.9580723827396103 -0.19572934264240355 0.0 0.503441143388225 -0.00540951192794327 0.0 1.1223711195752313 0.01758234534719243 0.0 0.24729262645721978 -0.14890092129689889 0.0 0.6711038663660952 -0.07634114840944947 0.0 1.091993360183665 0.04819876820401137 0.0 1.0204544986665811 -0.1407076244828228 0.0 0.8979682583012187 -0.15304540028175803 0.0 0.7526855398135248 -0.018117177550828423 0.0 0.9835214660129403 -0.016465030039261225 0.0 1.005204849450993 0.00016500936168769838 0.0 1.2262348894821018 0.11194179547188321 0.0 1.174952511500928 0.06715739858481973 0.0 0.9520483722710329 -0.028549913058152823 0.0 0.724478361482225 -0.09994310365027892 0.0 0.8008096684125336 -0.055803127714802794 0.0 0.0 0.0 0.0 1.0782507318139616 0.03183207107204393 0.0 1.0666923441505907 0.03934474941081281 0.0 0.42885136429304826 -0.23141346639128485 0.0 1.1095359440138028 0.03596787328970654 0.0 0.9840481100355972 -0.013928137351254718 0.0 1.1928648162730568 0.05543709396877496 0.0 0.7647909892379338 -0.09572056916111009 0.0 1.2341759882848586 0.18368872310878287 0.0 0.929555098460772 0.03322378087010549 0.0 0.5209512959182226 -0.21941662870479495 0.0 1.2313327934330576 0.13254960757227813 0.0 0.924608437717993 -0.00808764713926576 0.0 1.2511362709382265 0.21452933553069425 0.0 1.1258194968530293 0.12433740691091799 0.0 1.1799414666626238 0.23549393341078742 0.0 1.1357746876860122 0.016156736498906123 0.0 1.1211604311677288 0.022969520568875922 0.0 1.127307036031616 0.05821157495006207 0.0 0.31049244906169066 -0.32067102814467796 0.0 0.8687921666401456 0.13635479442445228 0.0 1.2513383801848206 0.22198818112488705 0.0 1.260154277744924 0.2639616139933553 0.0 1.0759969746151474 0.2884054010252494 0.0 1.160838695630249 0.2827995324661952 0.0 1.1348349221418506 0.0956910747244428 0.0 0.9579289020350762 0.07144639108926182 0.0 1.2375613258599076 0.3789526208041612 0.0 0.9741621486643001 0.2004534437078266 0.0 1.1277551401773371 0.13825337224262493 0.0 0.7664165776819328 0.07907385889926379 0.0 1.1938759663568017 0.33340067352028724 0.0 1.14756497064133 0.36308535739938674 0.0 1.2563640457594394 0.32381581781739327 0.0 0.9425373579247233 0.21906489543704788 0.0 0.0 0.0 0.0 0.6498444776100497 -0.0007048463125041881 0.0 1.0971838046203786 0.41207488738562026 0.0 1.1906084773304901 0.3872832980625481 0.0 1.1004784932744038 -0.38851249857515424 0.0 0.8565274606167413 -0.19539565914938842 0.0 0.96644484810015 -0.2077284250738553 0.0 0.893975231384673 -0.0830376744313316 0.0 1.2297500194213697 0.0725102925607601 0.0 1.2007818608771563 0.05751020301898484 0.0 1.2634181409110798 0.017943653946148934 0.0 1.118876179922222 0.010684781420314347 0.0 1.1420668282593487 0.03922827345588456 0.0 -0.16768229430713696 0.1426733501273091 0.0 -0.0643932723404311 0.2133311283683761 0.0 0.07642492501831931 0.19660829702927024 0.0 -0.009152808708722603 0.18347654802194105 0.0 0.16495062351558862 0.1421871874158048 0.0 -0.09421816046016267 0.1676024985747234 0.0 0.007749817491781531 0.15298090104842457 0.0 0.1371969731317781 0.11091768427362475 0.0 -0.011337005835793052 0.12858185767947894 0.0 -0.06295597775933937 0.1473624976117525 0.0 0.9871912750700239 0.11086564430926525 0.0 -0.018302767983238665 -0.3325402286560037 0.0 0.8634005060936575 -0.09144861964755654 0.0 0.8931074421187917 -0.16179239224783631 0.0 0.8428626012671367 -0.15457926010892187 0.0 0.8253905666391816 -0.06909352271685917 0.0 0.7787555417209208 0.09868134808706065 0.0 0.732247001744588 -0.06486091650316933 0.0 0.805661668361366 0.05900978595720684 0.0 0.7363045058856883 0.011782185773729994 0.0 0.7976956380311908 -0.011189115165822595 0.0 0.4806217093021373 -0.005482609537869237 0.0 0.5843084803354638 -0.02803403042851241 0.0 0.41684852204221695 -0.08453428928032404 0.0 0.6596058047124516 0.049411234881069195 0.0 0.7523188267508946 0.11821055315990392 0.0 0.5566421267933306 0.07666906090260252 0.0 0.741369563116743 0.060513304942013284 0.0 0.698928272396602 0.09741141532291767 0.0 0.4543686155582272 0.12044982997531906 0.0 0.5973502216098213 0.12511576196150448 0.0 0.48375302453808006 0.12089751726522435 0.0 0.5904737544574354 0.2754089711790275 0.0 0.6352598539167543 0.28408757049806577 0.0 0.5085869000672166 0.19662766947338356 0.0 0.6198620082439587 0.3042835458024142 0.0 0.5353974103964779 0.21485672048413082 0.0 0.5742650891133642 0.26928816773619163 0.0 0.8906927997245195 0.11628888507112414 0.0 0.7605690348831385 0.3883787411698782 0.0 1.1300444871113566 -0.06182715940130226 0.0 0.5895146910058604 0.16776154515691885 0.0 0.5796