<?xml version="1.0"?>
<VTKFile type="UnstructuredGrid"  version="0.1"  >
<UnstructuredGrid>
<Piece  NumberOfPoints="1289" NumberOfCells="2413">
<Points>
<DataArray  type="Float64"  NumberOfComponents="3"  format="ascii">0 0 0  0 0.41 0  2.2 0.41 0  2.2 0 0  0.1 0.1 0  0.1 0.3 0  0.8 0.3 0  0.8 0.1 0  0.25 0.2 0  0.248976 0.210065 0  0.245948 0.219718 0  0.241038 0.228563 0  0.234448 0.23624 0  0.226448 0.242432 0  0.217365 0.246888 0  0.207571 0.249423 0  0.197468 0.249936 0  0.187467 0.248404 0  0.17798 0.24489 0  0.169395 0.239539 0  0.162062 0.232569 0  0.156283 0.224265 0  0.152293 0.214968 0  0.150257 0.205058 0  0.150257 0.194942 0  0.152293 0.185032 0  0.156283 0.175735 0  0.162062 0.167431 0  0.169395 0.160461 0  0.17798 0.15511 0  0.187467 0.151596 0  0.197468 0.150064 0  0.207571 0.150577 0  0.217365 0.153112 0  0.226448 0.157568 0  0.234448 0.16376 0  0.241038 0.171437 0  0.245948 0.180282 0  0.248976 0.189935 0  1.1 0 0  1.1 0.41 0  0.1 0.2 0  0.45 0.1 0  0.45 0.3 0  0.55 0 0  0.275 0.1 0  0.275 0.3 0  0.275 0 0  0.55 0.41 0  0 0.205 0  0.825 0 0  0.825 0.41 0  0.275 0.41 0  0.1 0.15 0  0.1875 0.1 0  0.1 0.25 0  0.1875 0.3 0  0.132322 0.2 0  0.241426 0.253518 0  0.241426 0.146482 0  0.264574 0.17974 0  0.264574 0.22026 0  0.138434 0.187348 0  0.153372 0.150948 0  0.148413 0.164094 0  0.176495 0.136535 0  0.22768 0.143571 0  0.138434 0.212652 0  0.148413 0.235906 0  0.176495 0.263465 0  0.22768 0.256429 0  0.23125 0.3 0  0.24769 0.24094 0  0.23125 0.1 0  0.24769 0.15906 0  0.26253 0.193641 0  0.190482 0.137872 0  0.166753 0.146661 0  0.157737 0.244461 0  0.190482 0.262128 0  0.203107 0.261264 0  0.253635 0.22977 0  0.203107 0.138736 0  0.253635 0.17023 0  0.261028 0.206206 0  0.167707 0.251809 0  0.143629 0.224191 0  0.215302 0.2591 0  0.270465 0.245894 0  0.215302 0.1409 0  0.270465 0.154106 0  0.284052 0.202587 0  0.14375 0.3 0  0.209375 0.3 0  0.225966 0.278501 0  0.209375 0.1 0  0.225966 0.121499 0  0.211613 0.273759 0  0.211613 0.126241 0  0.143629 0.175809 0  0.1 0.175 0  0.133484 0.164832 0  0.144491 0.249539 0  0.1 0.225 0  0.133484 0.235168 0  0.3625 0.3 0  0.25691 0.253381 0  0.25691 0.146619 0  0.277205 0.188698 0  0.184724 0.275712 0  0.237372 0.268285 0  0.184724 0.124288 0  0.237372 0.131715 0  0.197578 0.273149 0  0.193656 0.286994 0  0.197578 0.126851 0  0.193656 0.113006 0  0.122953 0.187671 0  0.118362 0.153758 0  0.155372 0.258107 0  0.122953 0.212329 0  0.118362 0.246242 0  0.276394 0.27264 0  0.276394 0.12736 0  0.280965 0.170013 0  0.253125 0.3 0  0.14375 0.1 0  0.253125 0.1 0  0.269489 0.26014 0  0.269489 0.13986 0  0.303639 0.184297 0  0.165625 0.3 0  0.134742 0.273113 0  0.257831 0.274737 0  0.255279 0.128499 0  0.3625 0.1 0  0.165625 0.1 0  0.162031 0.132368 0  0.134955 0.126405 0  0.149334 0.125568 0  0.142936 0.139597 0  0.12695 0.140259 0  0.242514 0.285501 0  0.242514 0.114499 0  0.1 0.125 0  0.117483 0.12555 0  0.11154 0.139776 0  0.121875 0.1 0  0.109143 0.1125 0  0.126805 0.114 0  0.220313 0.29129 0  0.351562 0.287369 0  0.207222 0.2866 0  0.220312 0.10871 0  0.1375 0 0  0.20625 0 0  0.207222 0.1134 0  0.11722 0.17118 0  0.1 0.1625 0  0.0778409 0.16875 0  0.0862762 0.15625 0  0 0.15375 0  0 0.1025 0  0.11722 0.22882 0  0.1 0.2375 0  0 0.3075 0  0.0862762 0.23125 0  0.0598995 0.222547 0  0.0860223 0.2125 0  0.289584 0.181469 0  0.300267 0.16446 0  0.163832 0.269071 0  0.149597 0.273325 0  0.1 0.275 0  0.268498 0.285953 0  0.31875 0.3 0  0.294154 0.254672 0  0.296875 0.3 0  0.293558 0.271845 0  0.285095 0.286799 0  0.324298 0.264316 0  0.307866 0.263745 0  0.317093 0.234901 0  0.315485 0.281219 0  0.316547 0.250625 0  0.344693 0.243731 0  0.331592 0.251147 0  0.35129 0.270663 0  0.338689 0.263683 0  0.340625 0.3 0  0.249849 0.264383 0  0.265097 0.11422 0  0.284688 0.156136 0  0.242188 0.324017 0  0.0856613 0.2625 0  0.132812 0.0612217 0  0.264062 0.0612217 0  0.198437 0.07598340000000001 0  0.0860223 0.1375 0  0.0794526 0.191089 0  0.285228 0.140397 0  0.298655 0.148737 0  0.31875 0.1 0  0.327335 0.15374 0  0.296875 0.1 0  0.312289 0.155283 0  0.313348 0.135607 0  0.321802 0.173916 0  0.298433 0.134116 0  0.112124 0.2625 0  0.127526 0.259083 0  0.121875 0.3 0  0.0682687 0.241503 0  0.1 0.2875 0  0.117762 0.28125 0  0.107813 0.3 0  0.103906 0.313849 0  0.0778409 0.28125 0  0.1375 0.41 0  0.0862762 0.29375 0  0.08886860000000001 0.24375 0  0.307812 0.338778 0  0.307812 0.292227 0  0.33216 0.279164 0  0.387888 0.266414 0  0.264063 0.31948 0  0.110937 0.07598340000000001 0  0.242188 0.07598340000000001 0  0.319914 0.11839 0  0.340625 0.1 0  0.334448 0.133793 0  0.329687 0.108539 0  0.346259 0.118491 0  0.360334 0.173636 0  0.327539 0.205033 0  0.132812 0.288712 0  0.362436 0.278836 0  0.368105 0.259418 0  0.4125 0.41 0  0.329687 0.324017 0  0.329687 0.292306 0  0.285938 0.318952 0  0.417187 0.338778 0  0.324481 0.14148 0  0.351562 0.106771 0  0.40625 0.1 0  0.341028 0.168342 0  0.319221 0.190479 0  0.335292 0.184501 0  0.305563 0.20794 0  0.220313 0.31948 0  0.132812 0.332772 0  0.0865876 0.311259 0  0.0598995 0.302453 0  0.0906541 0.343255 0  0.353543 0.255837 0  0.36574 0.237633 0  0.405007 0.254279 0  0.275795 0.352123 0  0.4125 0 0  0.35493 0.137394 0  0.366563 0.120618 0  0.35917 0.205246 0  0.198438 0.318952 0  0.0626109 0.263892 0  0.40625 0.3 0  0.354809 0.155936 0  0.386512 0.146872 0  0.373101 0.159939 0  0.384375 0.1 0  0.343394 0.19929 0  0.350682 0.185683 0  0.368101 0.189748 0  0.344016 0.221511 0  0.391108 0.213329 0  0.376279 0.204783 0  0.398843 0.182768 0  0.375804 0.222746 0  0.390665 0.196958 0  0.394004 0.23518 0  0.359883 0.222828 0  0.419908 0.204359 0  0.404243 0.204783 0  0.412615 0.224526 0  0.20625 0.41 0  0.165625 0.325257 0  0.0347982 0.244954 0  0.379558 0.247154 0  0.34165 0.147603 0  0.372264 0.136992 0  0.388988 0.121989 0  0.373437 0.108554 0  0.351562 0.31948 0  0.391367 0.16527 0  0.399572 0.223324 0  0.452011 0.227371 0  0.40877 0.239392 0  0.431491 0.237337 0  0.421224 0.250459 0  0.449619 0.262098 0  0.418865 0.276779 0  0.437063 0.252274 0  0.415673 0.263227 0  0.430988 0.266772 0  0.402767 0.273419 0  0.452967 0.244883 0  0.428125 0.3 0  0.408502 0.286186 0  0.384375 0.3 0  0.392267 0.285807 0  0.465927 0.219339 0  0.43489 0.283846 0  0.376424 0.286289 0  0.625 0.3 0  0.473533 0.205186 0  0.461713 0.255517 0  0.5375 0.3 0  0.465725 0.235405 0  0.44631 0.201425 0  0.471875 0.3 0  0.494307 0.227729 0  0.459448 0.206736 0  0.462294 0.180792 0  0.478933 0.227536 0  0.486793 0.21381 0  0.486322 0.251373 0  0.50065 0.215318 0  0.54005 0.175389 0  0.474633 0.189893 0  0.512916 0.208697 0  0.49531 0.199967 0  0.475889 0.175275 0  0.625 0.1 0  0.459311 0.153933 0  0.513645 0.242704 0  0.392892 0.248539 0  0.374815 0.271913 0  0.365974 0.14871 0  0.395312 0.109184 0  0.417061 0.123981 0  0.483196 0.277003 0  0.381967 0.179632 0  0.429898 0.219374 0  0.433473 0.206165 0  0.43149 0.181038 0  0.444208 0.215487 0  0.472985 0.247309 0  0.49375 0.3 0  0.475579 0.262714 0  0.49916 0.274293 0  0.501175 0.184809 0  0.514164 0.225681 0  0.543648 0.214977 0  0.5341630000000001 0.23481 0  0.527396 0.216171 0  0.5375 0.1 0  0.534548 0.202315 0  0.561545 0.192513 0  0.5494289999999999 0.201221 0  0.570923 0.218346 0  0.412582 0.149833 0  0.489327 0.264745 0  0.502439 0.254775 0  0.462391 0.271166 0  0.496775 0.241732 0  0.5294410000000001 0.268606 0  0.482812 0.291099 0  0.46879 0.285038 0  0.452663 0.284065 0  0.51789 0.257882 0  0.53408 0.252026 0  0.560142 0.243543 0  0.545708 0.243474 0  0.547532 0.229019 0  0.55282 0.265323 0  0.398971 0.153424 0  0.400349 0.135684 0  0.410135 0.168145 0  0.428823 0.161323 0  0.415266 0.183779 0  0.329687 0.0810483 0  0.395312 0.0612217 0  0.373437 0.318952 0  0.439062 0.324017 0  0.561816 0.229354 0  0.585029 0.239287 0  0.431827 0.139854 0  0.446796 0.168929 0  0.351562 0.07598340000000001 0  0.395313 0.318944 0  0.54337 0.150762 0  0.460937 0.31948 0  0.418412 0.137529 0  0.428125 0.1 0  0.442783 0.152332 0  0.450742 0.134294 0  0.373437 0.0805201 0  0.384383 0.342558 0  0.482812 0.318952 0  0.429239 0.127457 0  0.444274 0.117405 0  0.426548 0.113815 0  0.49375 0.1 0  0.488954 0.113984 0  0.457973 0.121842 0  0.471621 0.137346 0  0.515625 0.325257 0  0.48125 0.41 0  0.417187 0.07598340000000001 0  0.496363 0.126778 0  0.479043 0.155715 0  0.439062 0.0805201 0  0.481795 0.126919 0  0.471875 0.1 0  0.489227 0.142159 0  0.515625 0.1 0  0.520062 0.147117 0  0.501244 0.161791 0  0.505431 0.112984 0  0.505344 0.14029 0  0.526563 0.119081 0  0.5181750000000001 0.131908 0  0.539868 0.136937 0  0.460937 0.108383 0  0.474242 0.114415 0  0.460937 0.0810483 0  0.487841 0.167168 0  0.526563 0.0612217 0  0.526563 0.106406 0  0.537619 0.112743 0  0.58125 0.1 0  0.559375 0.1 0  0.482812 0.08105569999999999 0  0.471883 0.0587655 0  0.570312 0.129396 0  0.548437 0.07598340000000001 0  0.504687 0.08105569999999999 0  0.49375 0.0470127 0  0.570312 0.112663 0  0.592798 0.12103 0  0.553986 0.12103 0  0.570312 0.0805201 0  0.48125 0 0  0.114787 0.2 0  0.160769 0.284765 0  0.175816 0.288361 0  0.162602 0.116048 0  0.154687 0.07598340000000001 0  0.176562 0.0805201 0  0.0598995 0.147547 0  0.307812 0.109924 0  0.291279 0.117157 0  0.278491 0.112989 0  0.285937 0.07598340000000001 0  0.307812 0.0805201 0  0.296928 0.196743 0  0.318141 0.218507 0  0.330208 0.227509 0  0.301397 0.225668 0  0.302706 0.241401 0  0.292574 0.21424 0  0.282762 0.230935 0  0.284351 0.244775 0  0.269553 0.23261 0  0.278572 0.217242 0  0.226924 0.342606 0  0.446928 0.185396 0  0.515625 0.3 0  0.504687 0.288879 0  0.515256 0.276534 0  0.529479 0.285328 0  0.58125 0.3 0  0.541969 0.272936 0  0.559375 0.3 0  0.556796 0.282529 0  0.543473 0.287206 0  0.581429 0.267774 0  0.566728 0.271171 0  0.570869 0.255585 0  0.577404 0.283865 0  0.603125 0.3 0  0.597531 0.28035 0  0.570312 0.338778 0  0.592188 0.292492 0  0.603513 0.256094 0  0.614063 0.286265 0  0.610329 0.27064 0  0.632708 0.251285 0  0.657223 0.261594 0  0.618789 0.257807 0  0.614188 0.22987 0  0.630935 0.265614 
[...]
<PointData  Vectors="v"> 
	<DataArray  type="Float64"  Name="v"  NumberOfComponents="3" format="ascii">
0.0 0.0 0.0 0.0 0.0 0.0 0.0 0.0 0.0 0.0 0.0 0.0 0.8039451764258687 -0.19648677321897134 0.0 0.8352615169767762 0.18604989451452544 0.0 0.9082215838424446 0.06227464712598385 0.0 0.6029682742917848 -0.031319478141218986 0.0 0.0 0.0 0.0 0.0 0.0 0.0 0.0 0.0 0.0 0.0 0.0 0.0 0.0 0.0 0.0 0.0 0.0 0.0 0.0 0.0 0.0 0.0 0.0 0.0 0.0 0.0 0.0 0.0 0.0 0.0 0.0 0.0 0.0 0.0 0.0 0.0 0.0 0.0 0.0 0.0 0.0 0.0 0.0 0.0 0.0 0.0 0.0 0.0 0.0 0.0 0.0 0.0 0.0 0.0 0.0 0.0 0.0 0.0 0.0 0.0 0.0 0.0 0.0 0.0 0.0 0.0 0.0 0.0 0.0 0.0 0.0 0.0 0.0 0.0 0.0 0.0 0.0 0.0 0.0 0.0 0.0 0.0 0.0 0.0 0.0 0.0 0.0 0.0 0.0 0.0 0.0 0.0 0.0 0.0 0.0 0.0 0.0 0.0 0.0 0.7657809680469052 -0.02309033099971347 0.0 0.9393573510327418 0.0611171268450119 0.0 1.2910081175703434 -0.26082163385589635 0.0 0.0 0.0 0.0 1.313203961469056 -0.005017586029500181 0.0 1.2893192327557488 0.07787865908311854 0.0 0.0 0.0 0.0 0.0 0.0 0.0 1.0 0.0 0.0 0.0 0.0 0.0 0.0 0.0 0.0 0.0 0.0 0.0 0.8542247598775102 -0.24515933346968707 0.0 1.1754605163375687 -0.28932231985490525 0.0 0.8635000768845194 0.2065240858127576 0.0 1.1548839058157432 0.29738562122288026 0.0 0.43278667776151775 -0.030231590320314142 0.0 0.1780920894982982 0.012483198176368785 0.0 0.2199598966867641 -0.01719326782024353 0.0 -0.039543376638160245 -0.1620417918493446 0.0 -0.049779430038395814 -0.02483398839869554 0.0 0.3438256634493986 -0.3108249787348989 0.0 0.8935893457988908 -0.6908684791326474 0.0 0.6676651510799402 -0.7195646754595442 0.0 1.2762256742378357 -0.6103060544270006 0.0 0.3624676073894976 0.01511890075860385 0.0 0.32992149009428084 0.2420238976538229 0.0 0.6421078986564093 0.6496326568009584 0.0 1.208485350090096 0.5910547420134836 0.0 0.3029445891891939 -0.006394405409835593 0.0 1.266732399386364 0.18024507595056094 0.0 -0.016011655405466618 0.02195433900534161 0.0 1.2919004101064169 -0.13672163692995362 0.0 -0.0050467955552818316 -0.0736891571811704 0.0 -0.03909431263800739 -0.138579894420469 0.0 1.2809887040087455 -0.40634910956477643 0.0 1.1616511611268467 -0.7488851444753708 0.0 0.8576414209105712 0.7588181201551611 0.0 1.2235603151161591 0.39253468145496384 0.0 0.9116083811981142 0.1609261569015717 0.0 -0.031179029886409765 0.009171218594662281 0.0 0.9857937614911211 -0.1610072717287779 0.0 -0.038713215847126795 -0.12401262212446844 0.0 -0.028526738889703356 -0.08520312918731879 0.0 1.0479903767816374 0.7143728629447045 0.0 0.43839181157036755 0.5060942613776512 0.0 0.5457179661373445 0.027965006223804396 0.0 0.05582709233395229 -0.006093128731016766 0.0 0.6129194256701588 -0.02388618536004654 0.0 0.15723318117327684 -0.09054697198641673 0.0 -0.12572113284459072 -0.08098260805624297 0.0 0.9584547869796244 0.2850372715875115 0.0 1.2381831058175585 0.23451990725458333 0.0 1.289347514460442 0.192247790675145 0.0 1.2469934830145215 -0.21864562269880186 0.0 1.3484653784058105 -0.16789267265405317 0.0 1.2981024558937293 0.24470039432488286 0.0 1.3645869215468809 -0.22710752596199985 0.0 0.46289188597064085 -0.5788750057884935 0.0 0.8105548582899 -0.15911220185789882 0.0 0.6908787693362956 -0.44312678564343694 0.0 0.8800383612737365 0.571959889843568 0.0 0.8005348479026231 0.119728659791972 0.0 0.6765812065269312 0.39363434116787077 0.0 1.286302948074612 -0.032305189807834575 0.0 0.19536199909376428 -0.0009884138501923625 0.0 0.28502078343849013 -0.031141547613254075 0.0 -0.07997431946468563 -0.13787189887676746 0.0 1.2898739318646482 0.41669634829177327 0.0 0.8853987859323329 0.05573262576448465 0.0 1.3311745027535462 -0.42683132159997755 0.0 1.0002478615856358 -0.0402227932695346 0.0 1.3228156012960606 0.34995827601056995 0.0 1.2577386801595685 0.3341679777273367 0.0 1.3707530510443338 -0.3440134685876662 0.0 1.2897120204863601 -0.31141537975477024 0.0 0.5937592825801448 -0.1866444524582735 0.0 0.8132174028409619 -0.3485739152622505 0.0 1.0185304404765425 0.5797924523169313 0.0 0.5936574976144191 0.12417348563313219 0.0 0.8127886187852846 0.30673453201371087 0.0 0.8670226549166491 0.009609334703191282 0.0 1.067416831477454 0.016519449946773748 0.0 0.021113204239274853 -0.13535629827338094 0.0 1.2897240138271415 0.12034504857262764 0.0 0.9480714192576641 -0.30857618014942995 0.0 1.3069354929619297 -0.06530993583188706 0.0 0.4083959815007763 -0.012695207206130132 0.0 0.5799636286824735 -0.00893131479217085 0.0 -0.0953900978455117 -0.0757873818218365 0.0 1.0497615124238968 0.31055304265467265 0.0 0.9430586083797166 0.363520980350046 0.0 1.0286742994286966 0.050141309555571466 0.0 1.0471738696212067 -0.01914540484802778 0.0 1.1745808912841444 0.2004165296664488 0.0 1.0513662789587557 -0.3143622106495818 0.0 1.1236203540393337 -0.5663676457690668 0.0 0.9558551229254497 -0.38998607073318076 0.0 1.0319049731610197 -0.43186611397171576 0.0 0.966320807621697 -0.553067633864627 0.0 0.8876676533360115 -0.4170815296953358 0.0 1.2981030001575087 0.14100670525551112 0.0 1.3463893348151386 -0.10295594226336775 0.0 0.8638149064920438 -0.24195313568790375 0.0 0.8962881614041307 -0.3142221802484777 0.0 0.8685879605119994 -0.3090461148405314 0.0 0.8638411981668465 -0.2516432929320595 0.0 0.8666080441104869 -0.25383489139909804 0.0 0.9145649907958905 -0.3171478270992883 0.0 1.3027462192640558 0.21552010955060086 0.0 1.158662764647086 -0.008685067355189825 0.0 1.315000707509088 0.27680125511903314 0.0 1.3336908158961696 -0.17565181084221418 0.0 0.0 0.0 0.0 0.0 0.0 0.0 1.340969310859611 -0.2527864716703955 0.0 0.7268695154972065 -0.2893776150324907 0.0 0.8307325699085486 -0.22707694985418184 0.0 0.8766273898223469 -0.12501008363374344 0.0 0.8701621187530857 -0.17692639303414986 0.0 0.9375 0.0 0.0 0.7500000000000001 0.0 0.0 0.7235643538772178 0.24062616350409852 0.0 0.8244343833722215 0.17742450906279786 0.0 0.7499999999999999 0.0 0.0 0.8703681651651294 0.10709146559252262 0.0 0.9293917510804284 0.0286158959694118 0.0 0.850753720558127 0.025110608532337462 0.0 -0.06363028242562728 -0.12192835240698233 0.0 0.12896467721951055 -0.0741771433094268 0.0 1.1255780489714302 0.5230813187400685 0.0 1.0215607990501763 0.44324449225499657 0.0 0.8784453131762855 0.22254936905170386 0.0 1.2330479168971062 0.06638898951428301 0.0 1.2723724567738415 0.0184502769945957 0.0 0.24812029803351002 -0.02250299822102538 0.0 1.2847599233392144 0.04267667357820666 0.0 0.7945018476058612 -0.008639976310476047 0.0 1.206436790486183 0.03789844797348844 0.0 0.5315292625032907 -0.0015851079127459581 0.0 0.5045775387012915 -0.015369834705381396 0.0 -0.033905589677694144 0.03706892420890549 0.0 1.036132577680377 0.0001829345087063146 0.0 0.1886419727041395 0.009689423162971448 0.0 0.1453160125160189 0.09565607215497388 0.0 0.23178328198088546 0.037718857876522086 0.0 0.7585562758168414 0.01623444388366526 0.0 0.5368694396523055 0.02071762156795208 0.0 1.2767420449911757 -0.007209470948100777 0.0 0.6177728509782865 0.011212144342896708 0.0 1.3290203175955904 -0.03050730656324124 0.0 0.2112820664321877 -0.0808535587451744 0.0 1.1298990612890358 0.10523853678934635 0.0 0.881796852497693 0.15948130103348118 0.0 0.7040148630549842 -0.15673905431783605 0.0 1.0239302843422964 -0.014011529250703599 0.0 1.028056331024096 -0.16705621843329937 0.0 0.8717926893900798 -0.19132804250486204 0.0 0.87903033657233 -0.04283413919373159 0.0 0.6189636142859837 0.0017048966066848556 0.0 0.4376944914452995 -0.006515948451819371 0.0 1.2814877930254558 0.12334653432011572 0.0 0.4534298608727642 0.0944458016038275 0.0 1.3131519317821843 0.057080657313465885 0.0 0.34875744276881565 0.015108926487130246 0.0 0.894693756581271 0.10815839721828902 0.0 0.03327331395091755 0.01581543501152845 0.0 0.8821541932996564 0.06208510283362426 0.0 0.8777850587970945 0.27279710904757337 0.0 0.87974952988774 0.3850079725927458 0.0 0.8782925349455142 0.24343734651649993 0.0 0.9124249742716417 0.09288092642852876 0.0 0.8616035501947308 0.20106155223570954 0.0 0.9015022562640043 0.277688101789914 0.0 0.8515277333874453 0.20989906428986546 0.0 0.7951772290975697 0.16260028304627852 0.0 0.8645631913022335 0.14349502323271826 0.0 0.0 0.0 0.0 0.8379253621385441 0.1575112642215478 0.0 0.8707256065715755 0.15025570522078774 0.0 1.0922893148146573 0.009486647892773389 0.0 1.2346314845373871 0.019259548784980287 0.0 0.9739015257406961 -0.0014753833393923094 0.0 0.812988023400344 0.022294584338159968 0.0 1.1896000421943556 0.07910373065327125 0.0 0.7226512764152784 -0.16888038689725876 0.0 1.123081378233207 -0.07184552781258588 0.0 1.2594505442202646 0.14943270289210595 0.0 1.2435186992431293 0.1722549284570552 0.0 1.0013343316194503 0.20596461207569317 0.0 1.2865685962314595 0.1710889202490577 0.0 1.2222460080587663 0.23366659479958232 0.0 0.09598632362269623 0.262203706029628 0.0 -0.23307193427456538 0.0589640248035411 0.0 0.9408253472397539 0.31172804812256516 0.0 1.0064562686057192 -0.005909252735145105 0.0 0.5455439120275791 0.07182704627319857 0.0 0.0 0.0 0.0 1.2001628985383561 -0.004038271888836293 0.0 1.225122962578965 0.0021569887148169525 0.0 1.2064466561505789 0.052127411106933925 0.0 1.0828466168809312 -0.12916296691060974 0.0 0.7634267028866479 0.12938076454436087 0.0 1.2289998171156693 0.21439844281954074 0.0 1.033338294523594 0.17548683036437823 0.0 0.17138904139696387 0.1434896953258377 0.0 -0.16435329942803942 -0.006682459605393931 0.0 -0.10771145707053234 0.08020306584419062 0.0 -0.19061267309670188 -0.02614293270068237 0.0 1.1341580794932675 0.1548173114177079 0.0 0.7638453891290468 0.17364251971510444 0.0 0.773391957819175 0.13647437968326126 0.0 0.7837010132658602 0.09383642003385977 0.0 0.6128771893596346 0.09679444437644982 0.0 0.402310008345155 0.07250343672754907 0.0 0.12029136276726701 0.1850561836297332 0.0 0.67216098775853 0.06323541937549794 0.0 0.9640900021827057 0.03741588835667816 0.0 0.0 0.0 0.0 0.9405870798003506 0.2825633130274463 0.0 1.1517921850862358 0.27946143791056194 0.0 -0.24734180963297672 0.2402755664152738 0.0 1.064097183243731 0.21139975429069893 0.0 0.8993898736465218 0.0971827863869909 0.0 1.3265791736396169 -0.13143707207100438 0.0 0.49152622504214105 0.25227077696704353 0.0 0.714620613193141 0.3587583258007133 0.0 0.4204065081201068 0.3355750005038216 0.0 1.1058834908019182 0.20072763354465317 0.0 -0.23708098286810286 0.13764260945731122 0.0 -0.11655961544127197 0.18327052669605112 0.0 -0.15534593014842082 0.29785513230470395 0.0 -0.16555992380784734 0.14089194810131436 0.0 -0.1334029328876494 0.3489528857509752 0.0 -0.22989424097706382 0.3260968340654455 0.0 -0.060069180163789905 0.42948737151612254 0.0 -0.08177242108295507 0.26958734921106653 0.0 -0.1976872131040584 0.3952821607740576 0.0 0.2334213960322452 0.22012951329452365 0.0 -0.12405734612642848 0.21019156502559921 0.0 -0.07726164833881848 0.37791364574437875 0.0 -0.15402813096918716 0.4046458770915462 0.0 0.1659755846854074 0.25534321395975407 0.0 0.0 0.0 0.0 0.9237795364311784 0.21889627241632972 0.0 0.9515099791188708 0.03152193761623267 0.0 0.36756062129422523 0.14893197565220045 0.0 0.6623451763059883 0.20014494071581893 0.0 0.9291020230237294 0.3259114440461605 0.0 1.0573668017713456 0.2866227136004178 0.0 1.1576085139606827 0.24119631981983916 0.0 1.236592830748955 -0.026031187513249825 0.0 0.29277926564676054 0.39356260253995445 0.0 0.05438728368162257 0.2938908574016021 0.0 0.5364171006893794 -0.029031307141282804 0.0 0.41973926339656287 0.15861180002124398 0.0 0.5551260961091411 0.05969169116005418 0.0 0.7211907557698686 0.019555683934968874 0.0 1.1095536194827365 -0.23666931453795398 0.0 1.1856073330184789 -0.13387293626552146 0.0 0.86973667287024 -0.09384244252400749 0.0 0.9242534541091736 -0.04186627604895337 0.0 1.0855227606247235 -0.1440726607239145 0.0 1.0513493759806056 -0.0534752564568417 0.0 0.8499158654582076 -0.1622168573401773 0.0 1.3212005999472665 -0.19306233454905875 0.0 1.266247436769536 -0.12340443855953077 0.0 1.3092737355124748 -0.07210535136608791 0.0 1.2223488618564526 -0.06788059941926246 0.0 0.49417945348229614 -0.10456166792033385 0.0 1.3077434381877866 -0.22933645683179768 0.0 1.186772996361003 -0.038001757109939915 0.0 0.7391924344409021 0.03838330707188844 0.0 0.32472865467134393 -0.07967734842225083 0.0 1.071198570092371 -0.29357924800243473 0.0 0.9754910633734092 -0.25470909491605265 0.0 0.7695416087444277 -0.21278867466919746 0.0 0.07168581502184432 0.22387600522807755 0.0 1.2289380931952978 -0.30666988405793455 0.0 0.8070917783829328 -0.4086223413901711 0.0 0.24601955454808153 0.062289521662634 0.0 0.019685933520514978 0.18930949230779595 0.0 0.7231871238098373 -0.28768885040428566 0.0 0.5553576389471248 -0.2657066872812532 0.0 1.0960513858465717 -0.4309735206455975 0.0 0.6578963896393479 -0.3909199377295082 0.0 0.4347603565496144 -0.3626574441264812 0.0 0.1526170693423493 0.02046112609948575 0.0 0.6314569731759763 -0.4270890791509181 0.0 0.417138525953137 -0.2526342372159183 0.0 0.06725097783095907 0.08800041260076821 0.0 1.1722016235949575 0.20558713599459755 0.0 0.25029343756908917 0.21667009393286082 0.0 1.0184285516685474 -0.5043707709631955 0.0 0.48121453701660255 0.13373224542251755 0.0 0.8723352054978761 0.013724328770989554 0.0 0.6841799385037385 0.3200729206149064 0.0 1.0759427637554557 0.22620376816878104 0.0 0.9344212550166938 0.23247183556534495 0.0 1.2469975424362534 -0.39962182161345156 0.0 -0.00036738305420776717 0.3755090187851959 0.0 0.21229198662742974 0.20261536122965976 0.0 0.03416409075469964 0.2960952901250926 0.0 -0.06351067660856383 0.4041100981987043 0.0 0.2602651599122276 0.13144398131288842 0.0 1.003183963980942 -0.3369707238358708 0.0 1.1484954141281833 -0.3181646958966398 0.0 1.193788410162062 -0.39506096971256655 0.0 1.195473026813133 -0.42425068448382675 0.0 0.2959918014525288 -0.19729256385475888 0.0 0.8469729177523928 -0.49274105169172755 0.0 0.7783685737916953 -0.48080666923456944 0.0 0.9360925628410856 -0.4925417682281396 0.0 0.7678852355001896 -0.49104578626492495 0.0 1.0032600559757698 -0.07097652261618671 0.0 0.6418128236867543 -0.4591078473872694 0.0 0.62174644449298 -0.4286754591157852 0.0 0.6730848665153097 -0.4544072863270286 0.0 0.7837613517040042 -0.3992439904204436 0.0 0.5770688688232299 0.34712842807892375 0.0 1.1992664816606982 -0.4423195487688085 0.0 1.1214435159899006 -0.4811588289101893 0.0 1.2504953679278494 -0.34031215121314184 0.0 1.0056580149104755 -0.46042961465236487 0.0 1.0716496214918763 -0.40451785082064673 0.0 1.2269750140560545 -0.357274996050794 0.0 1.2883435165551023 -0.3511762835530224 0.0 1.3092968594799133 -0.30083484430617063 0.0 1.0986377875537687 -0.46971564832781 0.0 1.0238572730535418 -0.4528269357159276 0.0 0.914685344129942 -0.38188326175058773 0.0 0.959994903807241 -0.44002216846431624 0.0 0.8811701560197759 -0.464356156672148 0.0 0.9770241561861125 -0.3375352223133531 0.0 0.5419258711996069 0.3726036662851509 0.0 0.866884409130749 0.32063192577106964 0.0 0.19138282600432377 0.40772863801446857 0.0 0.2587025944761056 0.35348855318191075 0.0 -0.0749986249331771 0.43361411086082347 0.0 1.1511215055268371 0.11810361879610626 0.0 0.8861031177160388 0.10268493274598568 0.0 1.249088028952212 -0.06272851810390168 0.0 1.1616973653908909 -0.20003232838339638 0.0 0.8561701798041776 -0.41294318404772 0.0 0.82475254534214 -0.2895562365552321 0.0 0.6730107788409927 0.24792660916192638 0.0 0.053731790813540646 0.3303827518930291 0.0 1.0729164269921454 0.13576121833152785 0.0 1.2479001284279287 -0.10509895651286062 0.0 0.3683630837264961 -0.2757156662961513 0.0 1.1459111404842706 -0.2427983360737137 0.0 0.7726396228401826 0.2782052987290018 0.0 0.9757013559007273 0.12404129097495609 0.0 0.3717067584089551 0.27457816574129756 0.0 0.6775543796748336 0.15169716830989777 0.0 1.0540275785588158 0.15123434283699533 0.0 1.0804676236082056 -0.0789414033625555 0.0 1.0854328478024093 -0.2584434146466761 0.0 0.8532195161786555 0.2031259655409996 0.0 0.8908833026200501 0.1133560038473101 0.0 0.9618983596619339 0.1653277176817322 0.0 0.9319809384523795 -0.05062883818329761 0.0 0.8346947083137445 -0.039459771808067735 0.0 0.8136111240203509 0.07418755933397914 0.0 0.5115479889816965 0.08943401616171232 0.0 0.9161145717032414 -0.2142289182758388 0.0 0.0 0.0 0.0 0.9357512128135848 0.10195679935085397 0.0 0.6265923011212593 -0.03609303024137569 0.0 0.16697406309970708 0.1104673888062549 0.0 0.9197396479011682 0.06525660784117708 0.0 0.6639395657347612 0.007744472300788175 0.0 0.92513795105983 -0.0019445849995176202 0.0 0.3550942464300545 0.03172968576262318 0.0 0.9589646785474052 -0.07734829144886361 0.0 0.30018425685599776 -0.15105127056978926 0.0 0.16949579968107795 -0.08249946035871128 0.0 0.8361907386032882 -0.07471889850582163 0.0 0.36691056937907 -0.05027659502033802 0.0 0.7583030028164827 -0.11299721358425267 0.0 0.5173392172659396 -0.11509946580079045 0.0 0.4878290958215396 -0.19902108899947624 0.0 0.9082090257567744 0.034821250791201144 0.0 0.8494271502079739 0.004449882016342535 0.0 0.9073606501369107 0.021826445953584954 0.0 0.11214348050305778 0.016521298694300433 0.0 0.8533041145403291 -0.012792470686058415 0.0 0.9309165898939553 -0.09252232576820743 0.0 0.8850211918186558 -0.10717612391645535 0.0 1.1318879283161385 0.03293121417512061 0.0 1.068032318333881 -0.0365399676555678 0.0 0.9179573821525661 -0.01599732528706832 0.0 0.7930191763915729 0.008033071073445627 0.0 0.7967057297956603 -0.15907093689091378 0.0 0.9975060886394542 -0.005682458106673777 0.0 0.942914905279275 -0.039401139164782606 0.0 0.6926819923902473 -0.005488575033938507 0.0 1.0238884185913304 -0.053296401239956055 0.0 1.0694303513581405 -0.005458031899867911 0.0 0.8235989465923624 -0.13391951279127698 0.0 1.0493945798721778 0.0362083206500755 0.0 0.0 0.0 0.0 0.6497112009771712 -0.029294955726394664 0.0 1.0789878347329613 0.39607083160638984 0.0 1.1701776436255742 0.37431368131786136 0.0 1.1206775133111355 -0.4033099426012889 0.0 0.8702955682888354 -0.20404625760753503 0.0 0.98419400177881 -0.21531037730644478 0.0 0.8959945150993872 -0.09352238015891941 0.0 1.3233143298972199 0.09825959987134017 0.0 1.288317876143627 0.05483599777999143 0.0 1.3239002870556393 0.014935499733979025 0.0 1.1486975284869128 0.03240652533925869 0.0 1.172722960553302 0.0800261850303351 0.0 -0.15347401958584023 -0.07544788999360866 0.0 -0.1767178883492466 0.03323849914132438 0.0 -0.10537301032661218 0.08134011660437983 0.0 -0.11195267294929548 -0.0007038205727742727 0.0 0.027770009729871318 0.002895554843144274 0.0 -0.14394180425142306 -0.034685080440321425 0.0 -0.06635772323749066 -0.01332891455887562 0.0 0.05184518444340497 -0.012013088293833674 0.0 -0.04949352237920155 -0.006711875063662355 0.0 -0.09862788672014246 -0.03593220424930821 0.0 0.9669420646817353 0.11150318060845352 0.0 -0.03761067816511465 0.30774488033903724 0.0 1.0612386754706498 -0.29823141782993934 0.0 1.147156451558533 -0.36535714598940644 0.0 1.1251118751677294 -0.40080173405168973 0.0 1.0530517141816167 -0.3350810195566033 0.0 0.832644620083225 -0.10806970171683038 0.0 1.0164158634419977 -0.34629983342533 0.0 0.8956657423286943 -0.18241714369784234 0.0 0.9496796834837857 -0.25719607345055895 0.0 0.98917756337677 -0.2846962561215744 0.0 0.8748142552213898 -0.20690142721848112 0.0 0.925248724856247 -0.2576937030969038 0.0 0.9050416953550923 -0.2957752580390452 0.0 0.8771455548717031 -0.17362807696586371 0.0 0.7786179718517252 -0.03242841155042937 0.0 0.81790924279904 -0.10167814192358254 0.0 0.6623706638558831 -0.05886167690817208 0.0 0.8192021092236954 -0.08779783483049977 0.0 0.7892998038034477 -0.16070142343429572 0.0 0.7709963952289729 -0.023848114919331784 0.0 0.7791686584239287 -0.08420014424257068 0.0 0.6216071963233125 -0.16673055871133927 0.0 0.5264239766928587 -0.08051416120929163 0.0 0.7251584649088292 -0.12076758765730107 0.0 0.6631302311155962 -0.2810594375130766 0.0 0.6772569478283749 -0.07543635349713908 0.0 0.6728152686369241 -0.20219775392490003 0.0 0.6283292316659879 0.07396463612562867 0.0 0.5576574509705995 -0.23335364028821523 0.0 0.5848616619097454 0.12255583493001526 0.0 0.71617098146