<?xml version="1.0"?>
<VTKFile type="UnstructuredGrid"  version="0.1"  >
<UnstructuredGrid>
<Piece  NumberOfPoints="1289" NumberOfCells="2413">
<Points>
<DataArray  type="Float64"  NumberOfComponents="3"  format="ascii">0 0 0  0 0.41 0  2.2 0.41 0  2.2 0 0  0.1 0.1 0  0.1 0.3 0  0.8 0.3 0  0.8 0.1 0  0.25 0.2 0  0.248976 0.210065 0  0.245948 0.219718 0  0.241038 0.228563 0  0.234448 0.23624 0  0.226448 0.242432 0  0.217365 0.246888 0  0.207571 0.249423 0  0.197468 0.249936 0  0.187467 0.248404 0  0.17798 0.24489 0  0.169395 0.239539 0  0.162062 0.232569 0  0.156283 0.224265 0  0.152293 0.214968 0  0.150257 0.205058 0  0.150257 0.194942 0  0.152293 0.185032 0  0.156283 0.175735 0  0.162062 0.167431 0  0.169395 0.160461 0  0.17798 0.15511 0  0.187467 0.151596 0  0.197468 0.150064 0  0.207571 0.150577 0  0.217365 0.153112 0  0.226448 0.157568 0  0.234448 0.16376 0  0.241038 0.171437 0  0.245948 0.180282 0  0.248976 0.189935 0  1.1 0 0  1.1 0.41 0  0.1 0.2 0  0.45 0.1 0  0.45 0.3 0  0.55 0 0  0.275 0.1 0  0.275 0.3 0  0.275 0 0  0.55 0.41 0  0 0.205 0  0.825 0 0  0.825 0.41 0  0.275 0.41 0  0.1 0.15 0  0.1875 0.1 0  0.1 0.25 0  0.1875 0.3 0  0.132322 0.2 0  0.241426 0.253518 0  0.241426 0.146482 0  0.264574 0.17974 0  0.264574 0.22026 0  0.138434 0.187348 0  0.153372 0.150948 0  0.148413 0.164094 0  0.176495 0.136535 0  0.22768 0.143571 0  0.138434 0.212652 0  0.148413 0.235906 0  0.176495 0.263465 0  0.22768 0.256429 0  0.23125 0.3 0  0.24769 0.24094 0  0.23125 0.1 0  0.24769 0.15906 0  0.26253 0.193641 0  0.190482 0.137872 0  0.166753 0.146661 0  0.157737 0.244461 0  0.190482 0.262128 0  0.203107 0.261264 0  0.253635 0.22977 0  0.203107 0.138736 0  0.253635 0.17023 0  0.261028 0.206206 0  0.167707 0.251809 0  0.143629 0.224191 0  0.215302 0.2591 0  0.270465 0.245894 0  0.215302 0.1409 0  0.270465 0.154106 0  0.284052 0.202587 0  0.14375 0.3 0  0.209375 0.3 0  0.225966 0.278501 0  0.209375 0.1 0  0.225966 0.121499 0  0.211613 0.273759 0  0.211613 0.126241 0  0.143629 0.175809 0  0.1 0.175 0  0.133484 0.164832 0  0.144491 0.249539 0  0.1 0.225 0  0.133484 0.235168 0  0.3625 0.3 0  0.25691 0.253381 0  0.25691 0.146619 0  0.277205 0.188698 0  0.184724 0.275712 0  0.237372 0.268285 0  0.184724 0.124288 0  0.237372 0.131715 0  0.197578 0.273149 0  0.193656 0.286994 0  0.197578 0.126851 0  0.193656 0.113006 0  0.122953 0.187671 0  0.118362 0.153758 0  0.155372 0.258107 0  0.122953 0.212329 0  0.118362 0.246242 0  0.276394 0.27264 0  0.276394 0.12736 0  0.280965 0.170013 0  0.253125 0.3 0  0.14375 0.1 0  0.253125 0.1 0  0.269489 0.26014 0  0.269489 0.13986 0  0.303639 0.184297 0  0.165625 0.3 0  0.134742 0.273113 0  0.257831 0.274737 0  0.255279 0.128499 0  0.3625 0.1 0  0.165625 0.1 0  0.162031 0.132368 0  0.134955 0.126405 0  0.149334 0.125568 0  0.142936 0.139597 0  0.12695 0.140259 0  0.242514 0.285501 0  0.242514 0.114499 0  0.1 0.125 0  0.117483 0.12555 0  0.11154 0.139776 0  0.121875 0.1 0  0.109143 0.1125 0  0.126805 0.114 0  0.220313 0.29129 0  0.351562 0.287369 0  0.207222 0.2866 0  0.220312 0.10871 0  0.1375 0 0  0.20625 0 0  0.207222 0.1134 0  0.11722 0.17118 0  0.1 0.1625 0  0.0778409 0.16875 0  0.0862762 0.15625 0  0 0.15375 0  0 0.1025 0  0.11722 0.22882 0  0.1 0.2375 0  0 0.3075 0  0.0862762 0.23125 0  0.0598995 0.222547 0  0.0860223 0.2125 0  0.289584 0.181469 0  0.300267 0.16446 0  0.163832 0.269071 0  0.149597 0.273325 0  0.1 0.275 0  0.268498 0.285953 0  0.31875 0.3 0  0.294154 0.254672 0  0.296875 0.3 0  0.293558 0.271845 0  0.285095 0.286799 0  0.324298 0.264316 0  0.307866 0.263745 0  0.317093 0.234901 0  0.315485 0.281219 0  0.316547 0.250625 0  0.344693 0.243731 0  0.331592 0.251147 0  0.35129 0.270663 0  0.338689 0.263683 0  0.340625 0.3 0  0.249849 0.264383 0  0.265097 0.11422 0  0.284688 0.156136 0  0.242188 0.324017 0  0.0856613 0.2625 0  0.132812 0.0612217 0  0.264062 0.0612217 0  0.198437 0.07598340000000001 0  0.0860223 0.1375 0  0.0794526 0.191089 0  0.285228 0.140397 0  0.298655 0.148737 0  0.31875 0.1 0  0.327335 0.15374 0  0.296875 0.1 0  0.312289 0.155283 0  0.313348 0.135607 0  0.321802 0.173916 0  0.298433 0.134116 0  0.112124 0.2625 0  0.127526 0.259083 0  0.121875 0.3 0  0.0682687 0.241503 0  0.1 0.2875 0  0.117762 0.28125 0  0.107813 0.3 0  0.103906 0.313849 0  0.0778409 0.28125 0  0.1375 0.41 0  0.0862762 0.29375 0  0.08886860000000001 0.24375 0  0.307812 0.338778 0  0.307812 0.292227 0  0.33216 0.279164 0  0.387888 0.266414 0  0.264063 0.31948 0  0.110937 0.07598340000000001 0  0.242188 0.07598340000000001 0  0.319914 0.11839 0  0.340625 0.1 0  0.334448 0.133793 0  0.329687 0.108539 0  0.346259 0.118491 0  0.360334 0.173636 0  0.327539 0.205033 0  0.132812 0.288712 0  0.362436 0.278836 0  0.368105 0.259418 0  0.4125 0.41 0  0.329687 0.324017 0  0.329687 0.292306 0  0.285938 0.318952 0  0.417187 0.338778 0  0.324481 0.14148 0  0.351562 0.106771 0  0.40625 0.1 0  0.341028 0.168342 0  0.319221 0.190479 0  0.335292 0.184501 0  0.305563 0.20794 0  0.220313 0.31948 0  0.132812 0.332772 0  0.0865876 0.311259 0  0.0598995 0.302453 0  0.0906541 0.343255 0  0.353543 0.255837 0  0.36574 0.237633 0  0.405007 0.254279 0  0.275795 0.352123 0  0.4125 0 0  0.35493 0.137394 0  0.366563 0.120618 0  0.35917 0.205246 0  0.198438 0.318952 0  0.0626109 0.263892 0  0.40625 0.3 0  0.354809 0.155936 0  0.386512 0.146872 0  0.373101 0.159939 0  0.384375 0.1 0  0.343394 0.19929 0  0.350682 0.185683 0  0.368101 0.189748 0  0.344016 0.221511 0  0.391108 0.213329 0  0.376279 0.204783 0  0.398843 0.182768 0  0.375804 0.222746 0  0.390665 0.196958 0  0.394004 0.23518 0  0.359883 0.222828 0  0.419908 0.204359 0  0.404243 0.204783 0  0.412615 0.224526 0  0.20625 0.41 0  0.165625 0.325257 0  0.0347982 0.244954 0  0.379558 0.247154 0  0.34165 0.147603 0  0.372264 0.136992 0  0.388988 0.121989 0  0.373437 0.108554 0  0.351562 0.31948 0  0.391367 0.16527 0  0.399572 0.223324 0  0.452011 0.227371 0  0.40877 0.239392 0  0.431491 0.237337 0  0.421224 0.250459 0  0.449619 0.262098 0  0.418865 0.276779 0  0.437063 0.252274 0  0.415673 0.263227 0  0.430988 0.266772 0  0.402767 0.273419 0  0.452967 0.244883 0  0.428125 0.3 0  0.408502 0.286186 0  0.384375 0.3 0  0.392267 0.285807 0  0.465927 0.219339 0  0.43489 0.283846 0  0.376424 0.286289 0  0.625 0.3 0  0.473533 0.205186 0  0.461713 0.255517 0  0.5375 0.3 0  0.465725 0.235405 0  0.44631 0.201425 0  0.471875 0.3 0  0.494307 0.227729 0  0.459448 0.206736 0  0.462294 0.180792 0  0.478933 0.227536 0  0.486793 0.21381 0  0.486322 0.251373 0  0.50065 0.215318 0  0.54005 0.175389 0  0.474633 0.189893 0  0.512916 0.208697 0  0.49531 0.199967 0  0.475889 0.175275 0  0.625 0.1 0  0.459311 0.153933 0  0.513645 0.242704 0  0.392892 0.248539 0  0.374815 0.271913 0  0.365974 0.14871 0  0.395312 0.109184 0  0.417061 0.123981 0  0.483196 0.277003 0  0.381967 0.179632 0  0.429898 0.219374 0  0.433473 0.206165 0  0.43149 0.181038 0  0.444208 0.215487 0  0.472985 0.247309 0  0.49375 0.3 0  0.475579 0.262714 0  0.49916 0.274293 0  0.501175 0.184809 0  0.514164 0.225681 0  0.543648 0.214977 0  0.5341630000000001 0.23481 0  0.527396 0.216171 0  0.5375 0.1 0  0.534548 0.202315 0  0.561545 0.192513 0  0.5494289999999999 0.201221 0  0.570923 0.218346 0  0.412582 0.149833 0  0.489327 0.264745 0  0.502439 0.254775 0  0.462391 0.271166 0  0.496775 0.241732 0  0.5294410000000001 0.268606 0  0.482812 0.291099 0  0.46879 0.285038 0  0.452663 0.284065 0  0.51789 0.257882 0  0.53408 0.252026 0  0.560142 0.243543 0  0.545708 0.243474 0  0.547532 0.229019 0  0.55282 0.265323 0  0.398971 0.153424 0  0.400349 0.135684 0  0.410135 0.168145 0  0.428823 0.161323 0  0.415266 0.183779 0  0.329687 0.0810483 0  0.395312 0.0612217 0  0.373437 0.318952 0  0.439062 0.324017 0  0.561816 0.229354 0  0.585029 0.239287 0  0.431827 0.139854 0  0.446796 0.168929 0  0.351562 0.07598340000000001 0  0.395313 0.318944 0  0.54337 0.150762 0  0.460937 0.31948 0  0.418412 0.137529 0  0.428125 0.1 0  0.442783 0.152332 0  0.450742 0.134294 0  0.373437 0.0805201 0  0.384383 0.342558 0  0.482812 0.318952 0  0.429239 0.127457 0  0.444274 0.117405 0  0.426548 0.113815 0  0.49375 0.1 0  0.488954 0.113984 0  0.457973 0.121842 0  0.471621 0.137346 0  0.515625 0.325257 0  0.48125 0.41 0  0.417187 0.07598340000000001 0  0.496363 0.126778 0  0.479043 0.155715 0  0.439062 0.0805201 0  0.481795 0.126919 0  0.471875 0.1 0  0.489227 0.142159 0  0.515625 0.1 0  0.520062 0.147117 0  0.501244 0.161791 0  0.505431 0.112984 0  0.505344 0.14029 0  0.526563 0.119081 0  0.5181750000000001 0.131908 0  0.539868 0.136937 0  0.460937 0.108383 0  0.474242 0.114415 0  0.460937 0.0810483 0  0.487841 0.167168 0  0.526563 0.0612217 0  0.526563 0.106406 0  0.537619 0.112743 0  0.58125 0.1 0  0.559375 0.1 0  0.482812 0.08105569999999999 0  0.471883 0.0587655 0  0.570312 0.129396 0  0.548437 0.07598340000000001 0  0.504687 0.08105569999999999 0  0.49375 0.0470127 0  0.570312 0.112663 0  0.592798 0.12103 0  0.553986 0.12103 0  0.570312 0.0805201 0  0.48125 0 0  0.114787 0.2 0  0.160769 0.284765 0  0.175816 0.288361 0  0.162602 0.116048 0  0.154687 0.07598340000000001 0  0.176562 0.0805201 0  0.0598995 0.147547 0  0.307812 0.109924 0  0.291279 0.117157 0  0.278491 0.112989 0  0.285937 0.07598340000000001 0  0.307812 0.0805201 0  0.296928 0.196743 0  0.318141 0.218507 0  0.330208 0.227509 0  0.301397 0.225668 0  0.302706 0.241401 0  0.292574 0.21424 0  0.282762 0.230935 0  0.284351 0.244775 0  0.269553 0.23261 0  0.278572 0.217242 0  0.226924 0.342606 0  0.446928 0.185396 0  0.515625 0.3 0  0.504687 0.288879 0  0.515256 0.276534 0  0.529479 0.285328 0  0.58125 0.3 0  0.541969 0.272936 0  0.559375 0.3 0  0.556796 0.282529 0  0.543473 0.287206 0  0.581429 0.267774 0  0.566728 0.271171 0  0.570869 0.255585 0  0.577404 0.283865 0  0.603125 0.3 0  0.597531 0.28035 0  0.570312 0.338778 0  0.592188 0.292492 0  0.603513 0.256094 0  0.614063 0.286265 0  0.610329 0.27064 0  0.632708 0.251285 0  0.657223 0.261594 0  0.618789 0.257807 0  0.614188 0.22987 0  0.630935 0.265614 
[...]
<PointData  Vectors="v"> 
	<DataArray  type="Float64"  Name="v"  NumberOfComponents="3" format="ascii">
0.0 0.0 0.0 0.0 0.0 0.0 0.0 0.0 0.0 0.0 0.0 0.0 0.7989147557183796 -0.19062292085388077 0.0 0.8405480695136495 0.19170063000271212 0.0 0.5374543701067962 0.11582307702481101 0.0 0.8195008945896813 0.15188383507293932 0.0 0.0 0.0 0.0 0.0 0.0 0.0 0.0 0.0 0.0 0.0 0.0 0.0 0.0 0.0 0.0 0.0 0.0 0.0 0.0 0.0 0.0 0.0 0.0 0.0 0.0 0.0 0.0 0.0 0.0 0.0 0.0 0.0 0.0 0.0 0.0 0.0 0.0 0.0 0.0 0.0 0.0 0.0 0.0 0.0 0.0 0.0 0.0 0.0 0.0 0.0 0.0 0.0 0.0 0.0 0.0 0.0 0.0 0.0 0.0 0.0 0.0 0.0 0.0 0.0 0.0 0.0 0.0 0.0 0.0 0.0 0.0 0.0 0.0 0.0 0.0 0.0 0.0 0.0 0.0 0.0 0.0 0.0 0.0 0.0 0.0 0.0 0.0 0.0 0.0 0.0 0.0 0.0 0.0 0.0 0.0 0.0 0.0 0.0 0.0 0.765794771685117 -0.010291598457397003 0.0 1.0071646679328246 0.2635733479409887 0.0 1.1831863267244245 -0.015298686032338835 0.0 0.0 0.0 0.0 1.319767969575618 -0.052225231458421804 0.0 1.2855812219742448 0.022846720125278087 0.0 0.0 0.0 0.0 0.0 0.0 0.0 1.0 0.0 0.0 0.0 0.0 0.0 0.0 0.0 0.0 0.0 0.0 0.0 0.8498808149653261 -0.2344415891152116 0.0 1.1636165670796046 -0.30125263095154703 0.0 0.8681732434836231 0.21697642684088794 0.0 1.1672235495131937 0.28344417225349705 0.0 0.4329132444445168 -0.01859954022199006 0.0 0.22746922859748783 0.007377780580368583 0.0 0.17405921237637673 -0.023796780865777044 0.0 -0.033115216008827726 -0.13697612618590546 0.0 -0.0625291728620058 0.0026756907131097927 0.0 0.34132191324102423 -0.2984391554562143 0.0 0.8835196303300459 -0.6844570958820135 0.0 0.6595516072809852 -0.7086821068649137 0.0 1.257941719531095 -0.6102289098235177 0.0 0.31107625105054304 0.002820729498912338 0.0 0.33266559418152447 0.2545623966642681 0.0 0.650554977774286 0.6604949133782749 0.0 1.2277784288171107 0.5908232420332828 0.0 0.35845425017261945 -0.019397401211622017 0.0 1.2739138728067791 0.14724813852584195 0.0 -0.0016981811413484195 0.04766896627224794 0.0 1.2847373467077359 -0.16523990847116982 0.0 -0.01941191144208744 -0.052756977155344234 0.0 -0.034801009162229855 -0.09751202851306442 0.0 1.2427146234323876 -0.4035642668399737 0.0 1.1429344126384722 -0.7414934850794773 0.0 0.8712087144951534 0.7693512168191268 0.0 1.2655042072141645 0.39529919872237407 0.0 0.9688358623833636 0.1591610895995352 0.0 -0.038109055755624344 0.05573452752904276 0.0 0.9335230518846541 -0.16262992192845205 0.0 -0.03379418966592939 -0.08386547380261576 0.0 -0.03473981288719264 -0.03871786540521036 0.0 1.0672818265944184 0.7236568718786137 0.0 0.44482915045284954 0.518698996856617 0.0 0.6059316508186221 0.02024596800331228 0.0 0.1240898409145179 -0.0071283267055130784 0.0 0.5574465527482276 -0.03105604136517349 0.0 0.10095315528909264 -0.08997307594883029 0.0 -0.1286087491040028 -0.1282465683691497 0.0 0.9680891608188962 0.28388174504965136 0.0 1.2501298289172806 0.2103988622833669 0.0 1.3274308330433762 0.1650577609010025 0.0 1.236590766411723 -0.23895752577752444 0.0 1.3160937441911353 -0.19241096169400593 0.0 1.3384507206987106 0.22473764160411439 0.0 1.3291844291639925 -0.24510387657337632 0.0 0.456634074407089 -0.5662417061703079 0.0 0.80819048862264 -0.1464956531832312 0.0 0.6849837403990188 -0.43261630871626894 0.0 0.8910930515687167 0.5801709198097724 0.0 0.8032158504430535 0.13226735875761883 0.0 0.6833108243181171 0.4046864185440806 0.0 1.1454351637906681 -0.058029573466996776 0.0 0.2745867661690263 0.0020927632857336703 0.0 0.21247820334024092 -0.032672360166155746 0.0 -0.0728564790086243 -0.15412129742041603 0.0 1.311520207054827 0.405559484246651 0.0 0.9687939868166404 0.03703927445815816 0.0 1.3119711028499679 -0.43582269725363776 0.0 0.9267910485638001 -0.05828603143794149 0.0 1.3513113176609473 0.33408965792450945 0.0 1.2749452099359284 0.31778976571884865 0.0 1.3452640430115659 -0.35809416126323645 0.0 1.2740179250509207 -0.32596079148365215 0.0 0.5912130045660844 -0.17412165628875206 0.0 0.8077894237268024 -0.33817169408782605 0.0 1.032928891089378 0.5840206396934623 0.0 0.5964600804363244 0.13672606782027982 0.0 0.8187098443795027 0.31711438214686377 0.0 0.9879382468606042 -0.03715235213860156 0.0 0.9632940847333119 -0.026717104722751257 0.0 0.012531566169450708 -0.16288813925924964 0.0 1.2923952933954572 0.07724308102831372 0.0 0.9389565546934013 -0.3084019881092781 0.0 1.3055248922555132 -0.1029726690896292 0.0 0.5293105038193866 -0.03010614505788098 0.0 0.4673683228719234 -0.029783822367101063 0.0 -0.07416611919422701 -0.20661067727099916 0.0 1.0610909346846429 0.30355578956832874 0.0 0.952874856285665 0.367802337558136 0.0 1.1172418090238672 0.01882867657058641 0.0 0.9646565713112476 -0.04330984834199239 0.0 1.310434803099151 0.18391690105586417 0.0 1.0406329114983064 -0.3197813059954436 0.0 1.1096422477494914 -0.564907402941913 0.0 0.9464018553145817 -0.3855286585228248 0.0 1.0203822195114751 -0.4304372287998323 0.0 0.9558868237074887 -0.5464874512934307 0.0 0.8800545239564997 -0.40889977331849414 0.0 1.325355041304066 0.1032144723842449 0.0 1.324084793854448 -0.13623528410012403 0.0 0.8587077356288586 -0.23353293444831227 0.0 0.8892367999792108 -0.30737760521846474 0.0 0.8625788386245202 -0.3000764628467256 0.0 0.8565687484223432 -0.24817369442083126 0.0 0.8603065943967707 -0.2476256359573331 0.0 0.906586091450745 -0.31282269496307313 0.0 1.3170963823823278 0.1853574015834043 0.0 1.0845541138460866 -0.09519763096275605 0.0 1.3337871436158861 0.2535106567440035 0.0 1.3210028747418059 -0.202403548727571 0.0 0.0 0.0 0.0 0.0 0.0 0.0 1.3247776682491745 -0.2734501333577932 0.0 0.7233520387871559 -0.2775112268741942 0.0 0.8271903152976375 -0.21547252925665367 0.0 0.8751523518025537 -0.11318628757889114 0.0 0.8672945339058135 -0.16560766052438888 0.0 0.9375 0.0 0.0 0.7500000000000001 0.0 0.0 0.7273828787696462 0.2525894708239053 0.0 0.8282167584318723 0.18903098643191826 0.0 0.7499999999999999 0.0 0.0 0.8726767794334412 0.11910602286830545 0.0 0.9303345888053203 0.03905308844279979 0.0 0.8516975615435516 0.03775783604739628 0.0 -0.05358806617309145 -0.1843541804372644 0.0 0.11406845422823646 -0.16784025236767153 0.0 1.1414459464409679 0.5227797306526427 0.0 1.034001851525699 0.445357672149752 0.0 0.8836038800425267 0.23091884198104218 0.0 1.2757245071432048 0.01523017346635749 0.0 1.2246716636362855 -0.053593862335810476 0.0 0.38471939097697794 -0.09883177163064967 0.0 1.2648988643779435 -0.02521481039421805 0.0 0.9337023364043773 -0.08006069754234128 0.0 1.2513000650941046 -0.027829337738061156 0.0 0.654531678938192 -0.15623189138782956 0.0 0.6618049478849346 -0.12832434631315195 0.0 -0.05329192745593952 -0.17709797425160392 0.0 1.0999561968751492 -0.10140703438170184 0.0 0.26543127867443095 -0.1585389534769333 0.0 0.07610274514695721 -0.20646089532518672 0.0 0.26408846192016605 -0.1830464651847999 0.0 0.7619961892233679 -0.14118053463299554 0.0 0.6044671703381573 -0.16700955970405965 0.0 1.1882221587985562 -0.06918279988767136 0.0 0.713866743507144 -0.005343465010402692 0.0 1.2966492267499357 -0.0733776992299967 0.0 0.15018475896223665 -0.11825054891950659 0.0 1.123553590024793 0.07335803738331234 0.0 0.885445971890027 0.1692285105678979 0.0 0.6967158552144227 -0.15674267724261676 0.0 1.0419237155968588 -0.03925813431485489 0.0 1.0223334053177948 -0.18027147340562266 0.0 0.8682314175330689 -0.1817118834005925 0.0 0.8787886273815095 -0.03048232305070216 0.0 0.4870813763301296 -0.04358095962265163 0.0 0.3362663050365329 -0.09016722518839491 0.0 1.3335788962440585 0.059861363518658076 0.0 0.4057904373398172 -0.1047288025462254 0.0 1.3326981719731268 -0.002100020787050855 0.0 0.29476320779556237 -0.12933190753504054 0.0 0.7550121278395664 -0.008623922489055594 0.0 0.06657744787227399 -0.20485945524296909 0.0 0.7369795233792288 -0.02190655581413877 0.0 0.8844478029984493 0.28119313313834626 0.0 0.8878783903926372 0.39319114434584146 0.0 0.8853233986354828 0.2464926369758935 0.0 0.9142762988479445 0.10359043912707776 0.0 0.866725620860925 0.2074875854920953 0.0 0.9088823342534178 0.2835528434686413 0.0 0.8575880125819663 0.21489399035012086 0.0 0.8006432180267925 0.1661650770929186 0.0 0.8681902824682945 0.15165581440011736 0.0 0.0 0.0 0.0 0.841918773684116 0.16440906771611474 0.0 0.873934017928597 0.16130645436661648 0.0 1.04147142670435 -0.022855849956774078 0.0 1.2349580332964578 -0.06626578443085712 0.0 1.0153441219909547 -0.12110752469629624 0.0 0.5577806851624464 -0.07802197527617441 0.0 1.1746665426334395 0.03857785137852207 0.0 0.7171255307179755 -0.16578642448655453 0.0 1.127922839048108 -0.0972982088778731 0.0 1.2347862299925705 0.042288017550787024 0.0 1.3362501802086488 0.12059951927579099 0.0 0.9191372019496794 0.04375795812703153 0.0 1.3414855655491047 0.08933252443727561 0.0 1.2857981563992853 0.1323177546516976 0.0 0.23471651696788542 -0.0869000516690386 0.0 -0.22776766422590972 -0.24247556210471324 0.0 0.9499238517001215 0.31421084115316644 0.0 0.9217696738024111 -0.10629524067295368 0.0 0.4098963243722379 -0.14474244466964284 0.0 0.0 0.0 0.0 1.1201518893406317 -0.03949272701794937 0.0 1.1869515801181498 -0.08832624417762042 0.0 1.1780206999152116 0.005063258222797977 0.0 1.0253163088391992 -0.03252200434682676 0.0 0.6487651044867654 -0.034606099347896206 0.0 1.3413788286403086 0.16602396256414073 0.0 1.1852997378273809 0.2814466665371332 0.0 0.22967924852014357 -0.15062306175173526 0.0 -0.12627270499878782 -0.22660483774504567 0.0 -0.03946412885649935 -0.22149968523121347 0.0 -0.18896563316230097 -0.1846960939052321 0.0 1.1374017175632891 0.12879096077796565 0.0 0.769880826445213 0.1729921191652645 0.0 0.7772833019159517 0.14171569904920842 0.0 0.7857727579064759 0.10034013575646998 0.0 0.6168304032719831 0.09982716783296551 0.0 0.34605196969412894 -0.17767354951798722 0.0 -0.06495236490463525 -0.17523016127751864 0.0 0.251797433744396 -0.0020332159743353864 0.0 0.9347057192785246 0.012861254361084602 0.0 0.0 0.0 0.0 0.9478726596745783 0.10560823019209743 0.0 1.2868792036947763 0.21860659313200198 0.0 -0.224162740493565 -0.20555490344599572 0.0 1.0702082156752404 0.19443198082486718 0.0 0.901431496564998 0.10611570902294246 0.0 1.128026548204392 -0.013578084824330204 0.0 0.5355328721154737 -0.01937609463584776 0.0 0.9241089325386121 0.2544864908868058 0.0 0.5702235566415056 0.07219663340302111 0.0 1.262476448034917 0.24475347294594918 0.0 -0.18832356494353586 -0.23585502023725602 0.0 -0.011633078570029367 -0.19152047881527398 0.0 -0.011382458242424977 -0.11350383878182983 0.0 -0.2122416124093414 -0.22716956722683085 0.0 -0.1904784931416769 -0.03139021710934876 0.0 -0.17508684136933128 -0.11275359933144251 0.0 0.2662893523802412 0.17641259731710768 0.0 -0.23006862094238215 -0.13508323926445986 0.0 -0.016569026849779567 0.035003486676838315 0.0 -0.10705510016473212 -0.05023386271515101 0.0 -0.22984886287594158 -0.20036610845725933 0.0 0.022727401398957407 0.2672058354821342 0.0 -0.06100898151876266 0.13316042129351907 0.0 -0.15349282639064674 0.10749735512650323 0.0 0.0 0.0 0.0 0.9314179387124809 0.21197405985368084 0.0 0.9518138551930257 0.03838784105139417 0.0 0.10266918977632548 -0.12701978857235252 0.0 0.6182366054312052 -0.024878412544870793 0.0 1.0540952356759907 0.20989049854696715 0.0 1.2764752654082043 0.3140816651372239 0.0 1.3206139249675122 0.2440638150759426 0.0 1.1289992174664538 -0.04347908896132743 0.0 0.5734551059777608 0.19656681789351999 0.0 -0.18931101916989065 0.00732628141176318 0.0 0.022974531060696437 0.35496614523289927 0.0 -0.026745804995386264 0.037834291749885694 0.0 0.010290722657545178 0.19272325510786933 0.0 0.20550228812638732 0.08466788432251555 0.0 0.5776590283724902 0.13026533225840953 0.0 0.8045158779119752 0.01750270876479865 0.0 0.30318417668241054 0.14906429876666388 0.0 0.47572984834951015 0.0296065668871814 0.0 0.5987997631165661 0.06668685658876165 0.0 0.7226759016319657 -0.023874638060852417 0.0 0.2476147497151078 0.24256817290862623 0.0 1.1474399474644033 -0.005215516314584106 0.0 0.9856988012308819 -0.006584058416629419 0.0 1.1277864932706756 -0.03730282778723396 0.0 0.9860573874465407 -0.038227451831617486 0.0 0.08019139310068231 0.44470164492456093 0.0 0.9782516904714367 0.026710462287422895 0.0 1.0182537117890507 -0.06483922619664491 0.0 0.9282531338605707 -0.20391786959342895 0.0 0.19231752594405327 0.5021606472187573 0.0 0.5241966454207486 0.1820678932323074 0.0 1.2460008158060139 -0.26555552604980487 0.0 0.19085087252080124 0.34087416913622837 0.0 0.17548579690221652 0.43055920643992146 0.0 1.22969353173299 -0.059232627775999205 0.0 0.3338098293668016 0.35639882876175977 0.0 0.14464595416183748 0.47279014886446424 0.0 0.5128955811353031 0.4941231116774034 0.0 0.19754787457985787 0.40818174589202016 0.0 0.1730934738503887 0.47814826507221553 0.0 0.6470826734589933 0.16671561925939984 0.0 0.2627904444743787 0.42720256360881326 0.0 0.3179880930669475 0.2691328985695326 0.0 0.38216430175804517 0.48887635844445926 0.0 0.3009749323303009 0.39149754526483377 0.0 0.223821222865881 0.500021064016776 0.0 0.5680651646869394 0.4660393110697657 0.0 0.7686894342277134 -0.12415309705802388 0.0 0.8549691067239417 0.462742255574593 0.0 0.7500666160950076 0.0782290958780318 0.0 0.12391384483321821 -0.06104783207328625 0.0 0.7249959045379474 -0.09727703067957638 0.0 0.759102131457457 0.09835754201190634 0.0 1.2660934248472169 0.3100663567009564 0.0 1.1937092514574452 0.39822304019585497 0.0 1.0700527593398816 -0.01007750419503766 0.0 0.24117012053701006 0.04359120402023676 0.0 -0.06938301104273391 0.2537013436984735 0.0 0.06575821692356638 0.3536382749898749 0.0 0.4506660739954198 0.43271696372357515 0.0 0.009561601839045634 0.36658022353659697 0.0 0.45242398668086287 0.24120573000456136 0.0 1.2670236082101916 -0.1234828497085161 0.0 0.7689060127488102 0.10906982783070147 0.0 1.1218504750576084 -0.06634596031350454 0.0 0.34729358825454176 0.45846740191729435 0.0 0.49382493396050475 0.2297417390587033 0.0 0.6164233604075513 0.010371212331821686 0.0 0.8127730416582476 -0.04524436478706107 0.0 0.4893027696930152 0.1865207696772406 0.0 0.7881441085113461 -0.020065187520361356 0.0 0.40385653506850155 0.21592650680743292 0.0 0.4966415084514036 -0.04048626964339281 0.0 0.4989142958713718 0.04818166923206315 0.0 0.8507499308300712 -0.30589419783285776 0.0 0.9589177272796061 0.41790279132441144 0.0 0.912370373059379 0.04444330360256078 0.0 0.8476053619684061 0.05304233021065878 0.0 0.84467414807083 0.07578797325574853 0.0 0.5713719108412116 0.20638009489630918 0.0 1.2123778540557328 -0.2239066752926489 0.0 1.221843084691207 -0.070516995781505 0.0 1.1119207519930803 -0.00531064819657729 0.0 1.0335557687841377 0.021409030384606297 0.0 1.0196965740156239 -0.0826771191578339 0.0 1.0499082780282938 -0.16890518819485206 0.0 1.0891748130128167 -0.3405381800723012 0.0 1.0113859670531544 -0.2223575483865337 0.0 0.8300249272073458 -0.13954318419504336 0.0 1.2463188391814708 -0.35087259649748553 0.0 0.8481266284736155 0.3184887836827941 0.0 1.1498658577675205 0.37321566508715154 0.0 0.6090201019262462 0.3413281449896704 0.0 0.7923592192655643 0.4703008127480849 0.0 0.33429037907325143 0.3070490442777768 0.0 1.2239746882701763 0.0853731696066369 0.0 0.9517600933589785 0.16146338222334466 0.0 1.1209545388450541 -0.034077563501309506 0.0 1.1361817235879947 -0.03450930732212917 0.0 0.9326127651430363 -0.2852665332665391 0.0 1.1075437791243952 -0.46455972717371014 0.0 1.0597192992686444 0.4601763580657926 0.0 0.6814653787215664 0.49880103110434604 0.0 1.1628551322922562 0.12940765871552717 0.0 1.1193882682591534 -0.024779142590257115 0.0 0.44754732714941214 0.18293577883500506 0.0 1.1729190126369726 -0.06270761030548079 0.0 1.115018202279434 0.43526728806090725 0.0 1.1014654173398735 0.2898487241796033 0.0 0.9134801402649404 0.48988405786728995 0.0 1.022497083709355 0.4168084822306142 0.0 1.1625185354844654 0.17972817555315887 0.0 0.9970636752773174 -0.03529419362045752 0.0 1.1885988464533355 -0.10617550759526187 0.0 1.1355190522051588 0.41331330886241285 0.0 1.0691301321349105 0.35747674425921716 0.0 1.1565302430024769 0.35916295522033476 0.0 0.8607028893972959 0.13820501434144492 0.0 0.8927311017801688 0.19819057065282863 0.0 1.0138451474086443 0.3405561542027404 0.0 0.917485808196142 0.3606219756535597 0.0 1.1119274952138423 -0.17006571889555902 0.0 0.0 0.0 0.0 0.9990956319685642 0.21314139291739723 0.0 0.8529473448316868 0.20862481526397075 0.0 0.7717257948503952 0.39900860279529965 0.0 0.9578140959601018 0.21406741853827488 0.0 0.9089461814346577 0.2733605026218571 0.0 0.9271977025666353 0.20895360318671843 0.0 0.8259340780379403 0.301078494436808 0.0 0.8121940570751234 0.05423539528905643 0.0 0.6491576386120798 0.19795250960024846 0.0 0.621672828507714 0.33151712639925507 0.0 0.8403624493119324 0.12577200653861387 0.0 0.7682662299974371 0.2210039145657794 0.0 0.7779707958483684 0.053483098209695136 0.0 0.7592703627100903 0.12735373679975692 0.0 0.6084512373079003 0.08834896803907122 0.0 0.9893753705359649 0.27490533577211035 0.0 0.9404927333001877 0.2557450412556919 0.0 0.8881651888210262 0.1826623457642079 0.0 0.630361675373281 0.4054719837525178 0.0 0.6564742180116853 -0.008290386978136529 0.0 0.7998079994774375 0.025107994359451935 0.0 0.771181458919578 -0.002528950613814394 0.0 0.7494103865527395 -0.1087765029235073 0.0 0.7674426316763433 -0.08133457692183171 0.0 0.8243567061105513 0.12632994566135225 0.0 0.7001591021140249 0.09201671732888916 0.0 0.5110718168853624 -0.002999921398112018 0.0 0.7399584887444539 -0.055045652161051215 0.0 0.7846218974667563 0.06547356784316345 0.0 0.5324952915258786 0.03433467024322306 0.0 0.683911073152547 -0.07100256905956409 0.0 0.533790096540602 -0.09006647774587181 0.0 0.6712716233441995 -0.015107477866556274 0.0 0.771557327616822 -0.09209062662238567 0.0 0.0 0.0 0.0 0.6499295426617325 -0.017136516690061755 0.0 1.0921464248887103 0.39275733234836724 0.0 1.1857806450417216 0.36559515595464437 0.0 1.1074447668132046 -0.4064009398369398 0.0 0.8620898658447977 -0.20748942037284768 0.0 0.9758932572966631 -0.22393015125413335 0.0 0.8944512069079438 -0.08415779963202132 0.0 1.3319990191288291 0.019718519930846827 0.0 1.2370477165868765 -0.013010333767447405 0.0 1.2936580335990633 -0.040690697585200275 0.0 1.1793544403922578 -0.005993397785530543 0.0 1.2203493325983439 0.037240533921907924 0.0 -0.1436393161916144 -0.18158575170408872 0.0 -0.19844257890656106 -0.19827169264189295 0.0 -0.1572788518718446 -0.21401105293160308 0.0 -0.12967430651315526 -0.13280442693982875 0.0 0.0627158184697666 -0.11703862001842213 0.0 -0.15716811792452667 -0.12065307567932508 0.0 -0.06416169360006839 -0.05165743877707249 0.0 0.12431400501126723 -0.05236170755703278 0.0 -0.037860683137932775 0.004882073990410453 0.0 -0.11110782542972455 -0.05969694559823267 0.0 0.9612484115170649 0.09138089682383178 0.0 0.4212864688485815 0.47951867206150117 0.0 1.2724325384483637 -0.2012343355710166 0.0 1.2682430778409222 -0.15261848823457347 0.0 1.2259183026076963 -0.16657808990822845 0.0 1.2921823733631856 -0.25756814845005144 0.0 1.107229850559447 -0.29783272099668756 0.0 1.2688254823127454 -0.3059085397285777 0.0 1.1840911414912507 -0.3018650409455193 0.0 1.2634242641033782 -0.3484868905003999 0.0 1.2808682861108733 -0.3054214314706679 0.0 1.2124900547813822 -0.41883569415896643 0.0 1.249978852996161 -0.3958933655363523 0.0 1.2041439783075032 -0.42374492315918505 0.0 1.1964807450290675 -0.36868822012170654 0.0 1.0166061433067377 -0.2655202104832937 0.0 1.1265452283389918 -0.35895716805569483 0.0 0.8042539130957375 -0.16513120629803646 0.0 1.1032658771142798 -0.3205407360065999 0.0 1.1383028241335673 -0.4398548150654962 0.0 1.039805118631216 -0.29382477982577276 0.0 1.1013972135801717 -0.37125846983412386 0.0 1.0347812963476886 -0.36790127475007933 0.0 0.9350016508375083 -0.2301046385781955 0.0 1.0820497470996404 -0.3937615552774717 0.0 1.041271488465289 -0.48082065066102564 0.0 1.0269560202393389 -0.32051942235971137 0.0 1.0674320432198243 -0.4399662057982373 0.0 0.7795661177653428 -0.0577619927968138 0.0 0.9805850689680685 -0.40897691159681626 0.0 0.6764016592036373 0.048304926743