<?xml version="1.0"?>
<VTKFile type="UnstructuredGrid"  version="0.1"  >
<UnstructuredGrid>
<Piece  NumberOfPoints="1289" NumberOfCells="2413">
<Points>
<DataArray  type="Float64"  NumberOfComponents="3"  format="ascii">0 0 0  0 0.41 0  2.2 0.41 0  2.2 0 0  0.1 0.1 0  0.1 0.3 0  0.8 0.3 0  0.8 0.1 0  0.25 0.2 0  0.248976 0.210065 0  0.245948 0.219718 0  0.241038 0.228563 0  0.234448 0.23624 0  0.226448 0.242432 0  0.217365 0.246888 0  0.207571 0.249423 0  0.197468 0.249936 0  0.187467 0.248404 0  0.17798 0.24489 0  0.169395 0.239539 0  0.162062 0.232569 0  0.156283 0.224265 0  0.152293 0.214968 0  0.150257 0.205058 0  0.150257 0.194942 0  0.152293 0.185032 0  0.156283 0.175735 0  0.162062 0.167431 0  0.169395 0.160461 0  0.17798 0.15511 0  0.187467 0.151596 0  0.197468 0.150064 0  0.207571 0.150577 0  0.217365 0.153112 0  0.226448 0.157568 0  0.234448 0.16376 0  0.241038 0.171437 0  0.245948 0.180282 0  0.248976 0.189935 0  1.1 0 0  1.1 0.41 0  0.1 0.2 0  0.45 0.1 0  0.45 0.3 0  0.55 0 0  0.275 0.1 0  0.275 0.3 0  0.275 0 0  0.55 0.41 0  0 0.205 0  0.825 0 0  0.825 0.41 0  0.275 0.41 0  0.1 0.15 0  0.1875 0.1 0  0.1 0.25 0  0.1875 0.3 0  0.132322 0.2 0  0.241426 0.253518 0  0.241426 0.146482 0  0.264574 0.17974 0  0.264574 0.22026 0  0.138434 0.187348 0  0.153372 0.150948 0  0.148413 0.164094 0  0.176495 0.136535 0  0.22768 0.143571 0  0.138434 0.212652 0  0.148413 0.235906 0  0.176495 0.263465 0  0.22768 0.256429 0  0.23125 0.3 0  0.24769 0.24094 0  0.23125 0.1 0  0.24769 0.15906 0  0.26253 0.193641 0  0.190482 0.137872 0  0.166753 0.146661 0  0.157737 0.244461 0  0.190482 0.262128 0  0.203107 0.261264 0  0.253635 0.22977 0  0.203107 0.138736 0  0.253635 0.17023 0  0.261028 0.206206 0  0.167707 0.251809 0  0.143629 0.224191 0  0.215302 0.2591 0  0.270465 0.245894 0  0.215302 0.1409 0  0.270465 0.154106 0  0.284052 0.202587 0  0.14375 0.3 0  0.209375 0.3 0  0.225966 0.278501 0  0.209375 0.1 0  0.225966 0.121499 0  0.211613 0.273759 0  0.211613 0.126241 0  0.143629 0.175809 0  0.1 0.175 0  0.133484 0.164832 0  0.144491 0.249539 0  0.1 0.225 0  0.133484 0.235168 0  0.3625 0.3 0  0.25691 0.253381 0  0.25691 0.146619 0  0.277205 0.188698 0  0.184724 0.275712 0  0.237372 0.268285 0  0.184724 0.124288 0  0.237372 0.131715 0  0.197578 0.273149 0  0.193656 0.286994 0  0.197578 0.126851 0  0.193656 0.113006 0  0.122953 0.187671 0  0.118362 0.153758 0  0.155372 0.258107 0  0.122953 0.212329 0  0.118362 0.246242 0  0.276394 0.27264 0  0.276394 0.12736 0  0.280965 0.170013 0  0.253125 0.3 0  0.14375 0.1 0  0.253125 0.1 0  0.269489 0.26014 0  0.269489 0.13986 0  0.303639 0.184297 0  0.165625 0.3 0  0.134742 0.273113 0  0.257831 0.274737 0  0.255279 0.128499 0  0.3625 0.1 0  0.165625 0.1 0  0.162031 0.132368 0  0.134955 0.126405 0  0.149334 0.125568 0  0.142936 0.139597 0  0.12695 0.140259 0  0.242514 0.285501 0  0.242514 0.114499 0  0.1 0.125 0  0.117483 0.12555 0  0.11154 0.139776 0  0.121875 0.1 0  0.109143 0.1125 0  0.126805 0.114 0  0.220313 0.29129 0  0.351562 0.287369 0  0.207222 0.2866 0  0.220312 0.10871 0  0.1375 0 0  0.20625 0 0  0.207222 0.1134 0  0.11722 0.17118 0  0.1 0.1625 0  0.0778409 0.16875 0  0.0862762 0.15625 0  0 0.15375 0  0 0.1025 0  0.11722 0.22882 0  0.1 0.2375 0  0 0.3075 0  0.0862762 0.23125 0  0.0598995 0.222547 0  0.0860223 0.2125 0  0.289584 0.181469 0  0.300267 0.16446 0  0.163832 0.269071 0  0.149597 0.273325 0  0.1 0.275 0  0.268498 0.285953 0  0.31875 0.3 0  0.294154 0.254672 0  0.296875 0.3 0  0.293558 0.271845 0  0.285095 0.286799 0  0.324298 0.264316 0  0.307866 0.263745 0  0.317093 0.234901 0  0.315485 0.281219 0  0.316547 0.250625 0  0.344693 0.243731 0  0.331592 0.251147 0  0.35129 0.270663 0  0.338689 0.263683 0  0.340625 0.3 0  0.249849 0.264383 0  0.265097 0.11422 0  0.284688 0.156136 0  0.242188 0.324017 0  0.0856613 0.2625 0  0.132812 0.0612217 0  0.264062 0.0612217 0  0.198437 0.07598340000000001 0  0.0860223 0.1375 0  0.0794526 0.191089 0  0.285228 0.140397 0  0.298655 0.148737 0  0.31875 0.1 0  0.327335 0.15374 0  0.296875 0.1 0  0.312289 0.155283 0  0.313348 0.135607 0  0.321802 0.173916 0  0.298433 0.134116 0  0.112124 0.2625 0  0.127526 0.259083 0  0.121875 0.3 0  0.0682687 0.241503 0  0.1 0.2875 0  0.117762 0.28125 0  0.107813 0.3 0  0.103906 0.313849 0  0.0778409 0.28125 0  0.1375 0.41 0  0.0862762 0.29375 0  0.08886860000000001 0.24375 0  0.307812 0.338778 0  0.307812 0.292227 0  0.33216 0.279164 0  0.387888 0.266414 0  0.264063 0.31948 0  0.110937 0.07598340000000001 0  0.242188 0.07598340000000001 0  0.319914 0.11839 0  0.340625 0.1 0  0.334448 0.133793 0  0.329687 0.108539 0  0.346259 0.118491 0  0.360334 0.173636 0  0.327539 0.205033 0  0.132812 0.288712 0  0.362436 0.278836 0  0.368105 0.259418 0  0.4125 0.41 0  0.329687 0.324017 0  0.329687 0.292306 0  0.285938 0.318952 0  0.417187 0.338778 0  0.324481 0.14148 0  0.351562 0.106771 0  0.40625 0.1 0  0.341028 0.168342 0  0.319221 0.190479 0  0.335292 0.184501 0  0.305563 0.20794 0  0.220313 0.31948 0  0.132812 0.332772 0  0.0865876 0.311259 0  0.0598995 0.302453 0  0.0906541 0.343255 0  0.353543 0.255837 0  0.36574 0.237633 0  0.405007 0.254279 0  0.275795 0.352123 0  0.4125 0 0  0.35493 0.137394 0  0.366563 0.120618 0  0.35917 0.205246 0  0.198438 0.318952 0  0.0626109 0.263892 0  0.40625 0.3 0  0.354809 0.155936 0  0.386512 0.146872 0  0.373101 0.159939 0  0.384375 0.1 0  0.343394 0.19929 0  0.350682 0.185683 0  0.368101 0.189748 0  0.344016 0.221511 0  0.391108 0.213329 0  0.376279 0.204783 0  0.398843 0.182768 0  0.375804 0.222746 0  0.390665 0.196958 0  0.394004 0.23518 0  0.359883 0.222828 0  0.419908 0.204359 0  0.404243 0.204783 0  0.412615 0.224526 0  0.20625 0.41 0  0.165625 0.325257 0  0.0347982 0.244954 0  0.379558 0.247154 0  0.34165 0.147603 0  0.372264 0.136992 0  0.388988 0.121989 0  0.373437 0.108554 0  0.351562 0.31948 0  0.391367 0.16527 0  0.399572 0.223324 0  0.452011 0.227371 0  0.40877 0.239392 0  0.431491 0.237337 0  0.421224 0.250459 0  0.449619 0.262098 0  0.418865 0.276779 0  0.437063 0.252274 0  0.415673 0.263227 0  0.430988 0.266772 0  0.402767 0.273419 0  0.452967 0.244883 0  0.428125 0.3 0  0.408502 0.286186 0  0.384375 0.3 0  0.392267 0.285807 0  0.465927 0.219339 0  0.43489 0.283846 0  0.376424 0.286289 0  0.625 0.3 0  0.473533 0.205186 0  0.461713 0.255517 0  0.5375 0.3 0  0.465725 0.235405 0  0.44631 0.201425 0  0.471875 0.3 0  0.494307 0.227729 0  0.459448 0.206736 0  0.462294 0.180792 0  0.478933 0.227536 0  0.486793 0.21381 0  0.486322 0.251373 0  0.50065 0.215318 0  0.54005 0.175389 0  0.474633 0.189893 0  0.512916 0.208697 0  0.49531 0.199967 0  0.475889 0.175275 0  0.625 0.1 0  0.459311 0.153933 0  0.513645 0.242704 0  0.392892 0.248539 0  0.374815 0.271913 0  0.365974 0.14871 0  0.395312 0.109184 0  0.417061 0.123981 0  0.483196 0.277003 0  0.381967 0.179632 0  0.429898 0.219374 0  0.433473 0.206165 0  0.43149 0.181038 0  0.444208 0.215487 0  0.472985 0.247309 0  0.49375 0.3 0  0.475579 0.262714 0  0.49916 0.274293 0  0.501175 0.184809 0  0.514164 0.225681 0  0.543648 0.214977 0  0.5341630000000001 0.23481 0  0.527396 0.216171 0  0.5375 0.1 0  0.534548 0.202315 0  0.561545 0.192513 0  0.5494289999999999 0.201221 0  0.570923 0.218346 0  0.412582 0.149833 0  0.489327 0.264745 0  0.502439 0.254775 0  0.462391 0.271166 0  0.496775 0.241732 0  0.5294410000000001 0.268606 0  0.482812 0.291099 0  0.46879 0.285038 0  0.452663 0.284065 0  0.51789 0.257882 0  0.53408 0.252026 0  0.560142 0.243543 0  0.545708 0.243474 0  0.547532 0.229019 0  0.55282 0.265323 0  0.398971 0.153424 0  0.400349 0.135684 0  0.410135 0.168145 0  0.428823 0.161323 0  0.415266 0.183779 0  0.329687 0.0810483 0  0.395312 0.0612217 0  0.373437 0.318952 0  0.439062 0.324017 0  0.561816 0.229354 0  0.585029 0.239287 0  0.431827 0.139854 0  0.446796 0.168929 0  0.351562 0.07598340000000001 0  0.395313 0.318944 0  0.54337 0.150762 0  0.460937 0.31948 0  0.418412 0.137529 0  0.428125 0.1 0  0.442783 0.152332 0  0.450742 0.134294 0  0.373437 0.0805201 0  0.384383 0.342558 0  0.482812 0.318952 0  0.429239 0.127457 0  0.444274 0.117405 0  0.426548 0.113815 0  0.49375 0.1 0  0.488954 0.113984 0  0.457973 0.121842 0  0.471621 0.137346 0  0.515625 0.325257 0  0.48125 0.41 0  0.417187 0.07598340000000001 0  0.496363 0.126778 0  0.479043 0.155715 0  0.439062 0.0805201 0  0.481795 0.126919 0  0.471875 0.1 0  0.489227 0.142159 0  0.515625 0.1 0  0.520062 0.147117 0  0.501244 0.161791 0  0.505431 0.112984 0  0.505344 0.14029 0  0.526563 0.119081 0  0.5181750000000001 0.131908 0  0.539868 0.136937 0  0.460937 0.108383 0  0.474242 0.114415 0  0.460937 0.0810483 0  0.487841 0.167168 0  0.526563 0.0612217 0  0.526563 0.106406 0  0.537619 0.112743 0  0.58125 0.1 0  0.559375 0.1 0  0.482812 0.08105569999999999 0  0.471883 0.0587655 0  0.570312 0.129396 0  0.548437 0.07598340000000001 0  0.504687 0.08105569999999999 0  0.49375 0.0470127 0  0.570312 0.112663 0  0.592798 0.12103 0  0.553986 0.12103 0  0.570312 0.0805201 0  0.48125 0 0  0.114787 0.2 0  0.160769 0.284765 0  0.175816 0.288361 0  0.162602 0.116048 0  0.154687 0.07598340000000001 0  0.176562 0.0805201 0  0.0598995 0.147547 0  0.307812 0.109924 0  0.291279 0.117157 0  0.278491 0.112989 0  0.285937 0.07598340000000001 0  0.307812 0.0805201 0  0.296928 0.196743 0  0.318141 0.218507 0  0.330208 0.227509 0  0.301397 0.225668 0  0.302706 0.241401 0  0.292574 0.21424 0  0.282762 0.230935 0  0.284351 0.244775 0  0.269553 0.23261 0  0.278572 0.217242 0  0.226924 0.342606 0  0.446928 0.185396 0  0.515625 0.3 0  0.504687 0.288879 0  0.515256 0.276534 0  0.529479 0.285328 0  0.58125 0.3 0  0.541969 0.272936 0  0.559375 0.3 0  0.556796 0.282529 0  0.543473 0.287206 0  0.581429 0.267774 0  0.566728 0.271171 0  0.570869 0.255585 0  0.577404 0.283865 0  0.603125 0.3 0  0.597531 0.28035 0  0.570312 0.338778 0  0.592188 0.292492 0  0.603513 0.256094 0  0.614063 0.286265 0  0.610329 0.27064 0  0.632708 0.251285 0  0.657223 0.261594 0  0.618789 0.257807 0  0.614188 0.22987 0  0.630935 0.265614 
[...]
<PointData  Vectors="v"> 
	<DataArray  type="Float64"  Name="v"  NumberOfComponents="3" format="ascii">
0.0 0.0 0.0 0.0 0.0 0.0 0.0 0.0 0.0 0.0 0.0 0.0 0.7984300090574292 -0.18690912991950906 0.0 0.8408525751911157 0.19735587178863928 0.0 1.087461786046286 -0.2582467950854514 0.0 0.541349686620465 -0.03531722948613541 0.0 0.0 0.0 0.0 0.0 0.0 0.0 0.0 0.0 0.0 0.0 0.0 0.0 0.0 0.0 0.0 0.0 0.0 0.0 0.0 0.0 0.0 0.0 0.0 0.0 0.0 0.0 0.0 0.0 0.0 0.0 0.0 0.0 0.0 0.0 0.0 0.0 0.0 0.0 0.0 0.0 0.0 0.0 0.0 0.0 0.0 0.0 0.0 0.0 0.0 0.0 0.0 0.0 0.0 0.0 0.0 0.0 0.0 0.0 0.0 0.0 0.0 0.0 0.0 0.0 0.0 0.0 0.0 0.0 0.0 0.0 0.0 0.0 0.0 0.0 0.0 0.0 0.0 0.0 0.0 0.0 0.0 0.0 0.0 0.0 0.0 0.0 0.0 0.0 0.0 0.0 0.0 0.0 0.0 0.0 0.0 0.0 0.0 0.0 0.0 0.7655891977176369 -0.0022095864587943167 0.0 1.128058926319244 0.01418643748377033 0.0 1.150798544807551 -0.28324875607970357 0.0 0.0 0.0 0.0 1.2827468558312065 -0.023639599946522538 0.0 1.3258151421199622 0.08703275312761609 0.0 0.0 0.0 0.0 0.0 0.0 0.0 1.0 0.0 0.0 0.0 0.0 0.0 0.0 0.0 0.0 0.0 0.0 0.0 0.8482645302273703 -0.22828961323559505 0.0 1.1567976449011188 -0.2850727295223636 0.0 0.8684703581861944 0.22394106053501653 0.0 1.171052969498129 0.30951949995185385 0.0 0.4329477437637395 -0.0026735534005072055 0.0 0.16091730424503684 0.026660716641872993 0.0 0.21719938020944698 -0.009822933305423553 0.0 -0.055897325390745614 -0.040224192503672554 0.0 -0.041626380320723064 0.09358310752553457 0.0 0.33853287066832627 -0.28017397184106463 0.0 0.8763886283907443 -0.6687868041507369 0.0 0.652838797033692 -0.6927783958431613 0.0 1.2529581508972325 -0.5968289368378448 0.0 0.35366407201866407 0.0173493888282265 0.0 0.334973120928497 0.27243523725329577 0.0 0.6547951055555625 0.6760434253319942 0.0 1.2244747929148203 0.6061054396850112 0.0 0.28742297113691706 0.0021980467123077817 0.0 1.2875179308242057 0.19173363035936802 0.0 -0.022773732568727834 0.047986150618715466 0.0 1.2701158379679351 -0.14233170996544514 0.0 -0.0036581168427824275 -0.05565098196827061 0.0 -0.041194849080424714 -0.003777604593338846 0.0 1.254177068539403 -0.39780167470511474 0.0 1.1375383321118613 -0.7298002252374899 0.0 0.8738192959365471 0.7811022728225806 0.0 1.234062756282542 0.4004971583408799 0.0 0.9096314849006674 0.16576557566822722 0.0 -0.03344237141118139 0.06721369958541595 0.0 0.9637922876102908 -0.15726886037861268 0.0 -0.03986560074305575 -0.07318594915868418 0.0 -0.03030769769379807 0.043312643496259205 0.0 1.0634905344057854 0.7309498318103378 0.0 0.4497083399436106 0.5355966379932569 0.0 0.5351463182988466 0.03295302518503964 0.0 0.07695481107375689 0.06840044078640768 0.0 0.597750983592658 -0.022376283370182656 0.0 0.12474041285773467 -0.022330560836564144 0.0 -0.11598644481561815 0.08196483855841862 0.0 0.9695163632933403 0.2983725074306426 0.0 1.255957617816821 0.2455232305415241 0.0 1.302542046474799 0.20452882269034323 0.0 1.2267350854060508 -0.2194816758236832 0.0 1.3193407479467725 -0.1691709638350283 0.0 1.3097214510310005 0.2556499698042846 0.0 1.33586442306597 -0.22592832136315275 0.0 0.4503850884063673 -0.5485336780512058 0.0 0.8066704393575974 -0.1387545146931723 0.0 0.6804751811757181 -0.41613158693218155 0.0 0.8934783387560045 0.5941380657030945 0.0 0.8039183357928129 0.14011540763501973 0.0 0.6859900750624387 0.42090176094647475 0.0 1.3459988359097024 -0.1168421664579062 0.0 0.18316624985574576 0.033039025712644575 0.0 0.2734306362761909 -0.008653681382723936 0.0 -0.09978863232187268 0.019927246814299828 0.0 1.30600652266159 0.42983883781183346 0.0 0.8822876301232464 0.06818391592930895 0.0 1.3075883669984234 -0.4199724160790751 0.0 0.964987086010028 -0.03822966469821339 0.0 1.3370742535421987 0.36162005861958874 0.0 1.273995175497272 0.3468287044552379 0.0 1.3458117481207559 -0.340217554889102 0.0 1.2680806167597318 -0.3080703071320598 0.0 0.5893178560454202 -0.15950351948544672 0.0 0.8046956551270671 -0.3275845330569811 0.0 1.0343114035677061 0.5988700251212429 0.0 0.5972089059077473 0.1512958816738691 0.0 0.8201019491573562 0.32827724308519307 0.0 0.8864920827626935 0.04345342898155235 0.0 0.9944938064602272 0.024569812731345182 0.0 -0.046934826973871614 -0.004672869199583306 0.0 1.316173709756861 0.13155695565792375 0.0 0.9358406068120053 -0.2980004736891244 0.0 1.2824231380748539 -0.07627029142873515 0.0 0.40637279857379 0.0335395898082947 0.0 0.5351174537575738 0.01869638177726383 0.0 -0.15787487603069952 0.0924778906216565 0.0 1.0636645949362324 0.3236274831192069 0.0 0.9536637469965485 0.3805826535821244 0.0 1.039821883126492 0.0716075576359314 0.0 1.0008595603876531 -0.016774410382243365 0.0 1.1608486913296177 0.08355303980334906 0.0 1.0353084386152531 -0.30645571527730836 0.0 1.103849403069684 -0.5515898113010232 0.0 0.943065568063352 -0.37471460328438955 0.0 1.0159494342458817 -0.41795302583112587 0.0 0.9505172000517106 -0.5338826701950585 0.0 0.876624835394734 -0.39830968006310485 0.0 1.31785779938514 0.15571044427210706 0.0 1.3168330991367485 -0.10833366798781649 0.0 0.8574621500175887 -0.228799358503112 0.0 0.8868685097930971 -0.29959895414311816 0.0 0.8603774444717994 -0.29247203052129894 0.0 0.8547723144094157 -0.24113059957612326 0.0 0.8589117238448589 -0.24198476098826 0.0 0.9039934540363423 -0.304207563126704 0.0 1.3208105300971174 0.2274657181831271 0.0 1.2880973685100783 -0.07616382711102225 0.0 1.3317879200398781 0.2892126435089921 0.0 1.3111464690436683 -0.17924118163720834 0.0 0.0 0.0 0.0 0.0 0.0 0.0 1.3181433698296066 -0.25225479314722987 0.0 0.7207926743344968 -0.26576833844164016 0.0 0.8255106630824065 -0.20869687757579777 0.0 0.8742268303728212 -0.11057002530480858 0.0 0.8664639138241238 -0.16206555516007376 0.0 0.9375 0.0 0.0 0.7500000000000001 0.0 0.0 0.7286214537646365 0.2643156090198029 0.0 0.8288081297842623 0.19635191405684568 0.0 0.7499999999999999 0.0 0.0 0.8730525811592055 0.1237789884462349 0.0 0.930378207781418 0.03899300392432093 0.0 0.8513314834710195 0.04247427399592933 0.0 -0.11869200740585152 0.040843805888111324 0.0 0.008007651492213042 0.05837948687714243 0.0 1.1411437551695853 0.5397171534273244 0.0 1.0348614327631664 0.46025123960427766 0.0 0.8840598372340606 0.23700797452905575 0.0 1.2645765276436256 0.0855300164776256 0.0 1.3373811228620602 -0.0013300580306403894 0.0 0.3095119434461866 0.06359830424943781 0.0 1.3364503891465198 0.04300032322509615 0.0 0.8452092797785266 0.030560011632388417 0.0 1.2526271740307908 0.05681420102980652 0.0 0.6683573753533038 0.03468301208365209 0.0 0.5914151864118652 0.0438936677730734 0.0 0.08492624979902665 0.14960217114914712 0.0 1.134924710522441 0.008777128039090957 0.0 0.3134391826299884 0.09505310245642551 0.0 0.3163178568347418 0.11879694047849564 0.0 0.3883157566744741 0.09406137374554406 0.0 0.9538681985670768 -0.03320721329426839 0.0 0.7108089426758073 0.02356079302700832 0.0 1.351878733783318 -0.055831516841789136 0.0 0.6078541670717234 0.029313342386895813 0.0 1.2867498783619846 -0.03494393936634812 0.0 0.12510705540133044 0.014724043807104837 0.0 1.1538048615248442 0.11107014450557758 0.0 0.8854251875352618 0.17298663518241933 0.0 0.6958233786798119 -0.15122980322680654 0.0 1.0127346248393712 -0.02844931412793956 0.0 1.0123770509951153 -0.16741768792245407 0.0 0.8674294467902548 -0.17884023447776418 0.0 0.8783548948738188 -0.02716561409253479 0.0 0.5373478864083102 0.04247234525006878 0.0 0.3100308919437524 0.06518219776729799 0.0 1.2360509907651198 0.0643397184107817 0.0 0.20925029179743052 0.14392124386703645 0.0 1.2724459017338705 0.025876795572003675 0.0 0.16958454064917078 0.10382668844355741 0.0 0.7143636295430531 0.11370710426855997 0.0 -0.11702827657095013 0.13963719691163487 0.0 0.7574620986554669 0.08294545579379155 0.0 0.8849370654160664 0.29007904009325636 0.0 0.8891376075134567 0.40503667279496386 0.0 0.886462902303691 0.2565103191948887 0.0 0.9142536191077042 0.10482105075650652 0.0 0.8671274679138563 0.21351380428424255 0.0 0.909560359052469 0.2931031977230787 0.0 0.8580331092171206 0.2220112525588331 0.0 0.8008892650950165 0.17243671003437616 0.0 0.8680304327635 0.15388419400690442 0.0 0.0 0.0 0.0 0.8419553877414714 0.16786229129791486 0.0 0.8741430479740931 0.1660453705076023 0.0 1.1208836626881602 -0.0058430112551210835 0.0 1.3062778760564766 0.020649581941909575 0.0 1.1075808323051914 -0.015276726632278439 0.0 1.029987452862635 -0.15868188954963564 0.0 1.2191996603068298 0.08288776835119369 0.0 0.7165270408133816 -0.16137910514170697 0.0 1.1063220286834798 -0.08160794225925913 0.0 1.1285058166154838 0.10282597670964848 0.0 1.2036112566014583 0.08388532774421023 0.0 0.7556599018406898 0.152099962895068 0.0 1.2070580045803534 0.09552165165280016 0.0 1.0671984075819665 0.1280715803476793 0.0 -0.1435797677283078 0.21124802879953167 0.0 -0.18559916138671145 0.19226885413054431 0.0 0.9508842916998744 0.3267537737410174 0.0 1.1839995820249336 -0.09829010695310658 0.0 0.7635191119717734 -0.028078701483372343 0.0 0.0 0.0 0.0 1.2323641590674517 -0.03854049940718264 0.0 1.3189686902839282 -0.030258137987619775 0.0 1.2423664577146 0.049577830574155705 0.0 1.026279723373644 -0.1609008805951458 0.0 0.5341501743101292 0.13559043830593936 0.0 1.166302030571547 0.09960172825882557 0.0 1.1142928123392186 0.04610905099822162 0.0 -0.0655169894813205 0.18553060530256957 0.0 -0.1999260120157961 0.1505074766380759 0.0 -0.2024226128098943 0.18574696205969315 0.0 -0.14918498632248908 0.1446995594958802 0.0 1.1544002271357858 0.16343759862715757 0.0 0.772282173890188 0.18280245466554965 0.0 0.7770740243918894 0.14514040374243087 0.0 0.7856242403441464 0.1002561057605335 0.0 0.6167470780066365 0.10289694809094538 0.0 0.6003905011337272 0.03704292370166904 0.0 0.31138349219663064 0.09872701484532598 0.0 0.8595283579966078 -0.20222398914665593 0.0 0.9886375485311604 0.03324941826066966 0.0 0.0 0.0 0.0 0.6247273069882165 0.16889099048376038 0.0 0.9842507565069768 0.12919396317530132 0.0 -0.18052106608346793 0.21462030149503955 0.0 1.0813222264375077 0.22086339723823523 0.0 0.9012539656313217 0.10644162232356241 0.0 1.2922085418079108 -0.2379738518834724 0.0 0.14602538511808208 0.19315928535329815 0.0 0.3144896190908401 0.1492879931480725 0.0 0.04905666894075483 0.19392281780344756 0.0 1.1335095472246806 0.06812952098856953 0.0 -0.216376463752152 0.2131791580908735 0.0 -0.2224299946190865 0.213377013588439 0.0 -0.2411407662392649 0.21610261465482347 0.0 -0.029333387479708796 0.1966437255031649 0.0 0.0020034719561898857 0.08946220329893338 0.0 -0.15781520125893334 0.18012486897661975 0.0 -0.2191452552044394 0.12180449690035386 0.0 0.08836643489113231 0.12153092122320679 0.0 -0.19434630227228272 0.1394489373405976 0.0 0.41222355052068466 -0.02548022887390212 0.0 0.04177936535415395 0.17713863545753636 0.0 -0.010978022675453118 -0.07356422680251183 0.0 -0.07293474492881583 0.03605054097822831 0.0 0.2929639679591308 -0.10439106799446735 0.0 0.0 0.0 0.0 0.937162481420176 0.22891288507579705 0.0 0.9517535051122119 0.036591850859850214 0.0 0.5679599569542094 -0.007711560217719802 0.0 0.3579195822697796 0.17158182085306692 0.0 0.5969587965400087 0.15588457631607294 0.0 0.908491272473217 0.10363432558531233 0.0 1.1130863308046053 0.09335181738731309 0.0 1.2621363370328775 -0.08043217955581457 0.0 -0.05653377061815934 0.15556290863642483 0.0 0.21105527890219172 -0.006052637015787505 0.0 0.5198997551086906 -0.3823254680658157 0.0 0.5700599012464879 -0.15327976719917213 0.0 0.6408891949036986 -0.3029094612161388 0.0 0.8537118862846239 -0.2882883285128164 0.0 1.064722671226066 -0.41492801724317535 0.0 1.2374293187853262 -0.31839499056251985 0.0 0.9310226723729572 -0.3788495351102163 0.0 1.0688124844931253 -0.29878998132380186 0.0 1.1350961840663805 -0.36637292857564285 0.0 1.1968250541111565 -0.2553538906946657 0.0 0.8285374170934391 -0.4228119130193913 0.0 1.227330930576296 -0.2722592274796499 0.0 1.2951003798520857 -0.27634262699502493 0.0 1.3354035613367337 -0.1782555640752155 0.0 1.311951044950465 -0.21779473658817122 0.0 0.4161175543309647 -0.4155805419703031 0.0 1.2275541177527516 -0.34237082165813476 0.0 1.3080444988571125 -0.16320891313693706 0.0 0.7906971997722 0.11978931972059163 0.0 0.2135791824116569 -0.40396563361823 0.0 0.970573196066409 -0.4301471197962425 0.0 0.8791996840695383 -0.07203331623205418 0.0 0.6853311797616679 -0.44104366313694177 0.0 0.06373256990907979 -0.24872158824331048 0.0 1.0656528114316188 -0.2612596963623641 0.0 0.5630327640699686 -0.43261521661423186 0.0 0.20020732878352068 -0.34965461295415917 0.0 -0.04918989519287013 -0.2811196185451873 0.0 0.5681989773156917 -0.44586760217458554 0.0 0.3583732303083962 -0.4413506358554195 0.0 0.8727767024755986 -0.4052873242721941 0.0 0.37828755910870654 -0.4443020531327486 0.0 0.4896094880262151 -0.18576664756276448 0.0 0.035426008253447584 -0.36900757117974203 0.0 0.26693687261555843 -0.4576710299616768 0.0 0.17504684561982778 -0.4488520044155119 0.0 0.02578657226329482 -0.3210538495994871 0.0 0.9911798578024518 0.24072456745011483 0.0 0.23311710316202697 -0.13551319628211544 0.0 0.7000889141721094 -0.3445476005329731 0.0 0.671886957021966 -0.0967903917629507 0.0 1.0831839673178063 -0.12120393130476521 0.0 0.30130306314747557 0.1856827028276723 0.0 1.0696798057259338 0.06493454364744258 0.0 0.8237449146903625 0.044651381096687905 0.0 1.03250816841913 -0.326381927832629 0.0 -0.2106066034405433 0.18402205183674786 0.0 0.28243512541136845 -0.22052860011195355 0.0 0.07642613418221587 -0.17932135688451606 0.0 -0.1569228812373794 -0.09024573815790654 0.0 0.27498098736170223 -0.2985101049804948 0.0 0.8554754163558674 -0.43931743852120425 0.0 0.9898972141223491 -0.2114025617438328 0.0 1.001274450906929 -0.39769956643035914 0.0 0.96875110440921 -0.2867202344546315 0.0 0.11422821754960374 -0.4140202398032103 0.0 0.48577788194914484 -0.40302036649508505 0.0 0.270497791391721 -0.38664185918442767 0.0 0.5077029089773121 -0.3242584552191665 0.0 0.31377356872441214 -0.4303067072974295 0.0 1.232062133436293 0.18365927694779105 0.0 0.2269251080735038 -0.4080459044604494 0.0 0.45683200033998633 -0.13374892685429465 0.0 0.30221941600654134 -0.3080774834136436 0.0 0.32920225870524117 -0.19758390670458068 0.0 0.22612677928028307 0.07430854495765045 0.0 0.9641497836939664 -0.3544245776086662 0.0 0.8512516207378639 -0.3431361143250215 0.0 1.0948905267838382 -0.3886801886322866 0.0 0.740037775250407 -0.4015990343585991 0.0 0.8396286004030926 -0.18415385963863173 0.0 1.0413171885371597 -0.27373959297763767 0.0 1.1010080734269716 -0.32705344344194376 0.0 1.163719221925068 -0.34558418792743045 0.0 0.8174931098851037 -0.26975265341360016 0.0 0.7048212824283463 -0.23365046926450347 0.0 0.4446119995409082 -0.22772602838074324 0.0 0.5406358414813803 -0.2548985536843911 0.0 0.3649245255613268 -0.34214181934917653 0.0 0.7270442799514649 -0.11428216665499068 0.0 0.15358890301921543 0.12420696162433371 0.0 0.5724471860471662 0.10203729348042458 0.0 -0.09656297757912398 0.0766439177522482 0.0 0.01699082664671526 -0.014317010149237381 0.0 -0.19259777660016672 0.025671128430873092 0.0 1.1464678520072047 0.05291562827740358 0.0 0.9868534955750731 0.04187973577705791 0.0 1.251985208082354 -0.1331183169889029 0.0 1.0676627154501794 -0.21156285621569504 0.0 0.32141705489769873 -0.2856565652902917 0.0 0.34811807681989815 -0.12794283803857207 0.0 0.45673863314929414 0.007673271710755826 0.0 -0.0445505453033847 -0.13555990103253943 0.0 1.09754043621397 0.05788681636152079 0.0 1.2143748492485371 -0.17746221890214184 0.0 0.8960978638660945 0.04027044879739216 0.0 1.02883485593859 -0.21197350219164854 0.0 0.5105327169947346 0.047464797473836425 0.0 1.10969947386608 0.02419165555642041 0.0 0.2069632278834279 -0.06826401720856273 0.0 0.6183480490676542 -0.041362487773263575 0.0 1.1050270946304073 0.05640430020334617 0.0 1.0605127404143602 -0.12060654341631213 0.0 0.9669791381106081 -0.1836945745216624 0.0 0.743633635578942 0.01799101951432434 0.0 0.9520576665343501 -0.0041145176731067195 0.0 0.9953476256786905 0.01973854652604157 0.0 1.1997891047129403 0.06230960838965172 0.0 1.1081844748213392 0.017878636548913956 0.0 0.8972872512636361 -0.025350027902739793 0.0 0.6272137917388373 -0.09278011398004059 0.0 0.8515924365682678 -0.09744643095024806 0.0 0.0 0.0 0.0 1.0780017396181747 0.03362606091387166 0.0 0.9604808001246871 -0.018773512986534492 0.0 0.3069968068356817 -0.2051051269759345 0.0 1.102259680184527 0.028246134770293547 0.0 0.888034445644366 -0.0433969018054393 0.0 1.1606058695073127 0.025531226865854264 0.0 0.6340080186348729 -0.12292896807752869 0.0 1.2288455690043583 0.12265155239784711 0.0 0.7697485894523763 -0.07330304457791147 0.0 0.3569241645927386 -0.2586484001705666 0.0 1.1727441179047553 0.06304276288713491 0.0 0.7813550221097757 -0.07890335323955952 0.0 1.1930056005444933 0.12280681601374582 0.0 1.0053761635225442 0.02562745131503457 0.0 1.0671969850936058 0.10845227992083316 0.0 1.0941333947304739 0.0008751208107528954 0.0 1.0590123981904225 -0.004307158289905015 0.0 1.1194360927975082 0.0372920712926616 0.0 0.17483566571249765 -0.3013244160128787 0.0 0.9274127158197534 0.11703001476746186 0.0 1.2422743170113364 0.1503587867566211 0.0 1.2492318560525337 0.18475091725271725 0.0 1.1539080104547623 0.2768474782744757 0.0 1.2137986459928827 0.24276782514384743 0.0 1.1347339477592353 0.062042109223901326 0.0 0.97170863812417 0.05399668996814306 0.0 1.2375244198185542 0.3000816622800641 0.0 1.0406688945025262 0.17856326369418093 0.0 1.1421820095153508 0.09815450313264083 0.0 0.8071589642718381 0.06493536647388119 0.0 1.242616708022718 0.29107344206507846 0.0 1.2157390745042997 0.34806746036338626 0.0 1.24867847601313 0.2397543856772388 0.0 1.0259416070356084 0.21266198823615665 0.0 0.0 0.0 0.0 0.6494911695657312 -0.005402487763436837 0.0 1.0928717814424684 0.4110715685634397 0.0 1.1854679950675722 0.3875254337897916 0.0 1.1025029779277622 -0.39287077138671617 0.0 0.8590007303690644 -0.1986213656448295 0.0 0.969639441193306 -0.21180724568633175 0.0 0.8941905000012318 -0.08470447850848553 0.0 1.2466568001592921 0.06165353291323712 0.0 1.2062944111801381 0.042771597388663804 0.0 1.2693157107632538 0.0042836194448223385 0.0 1.1329778418159997 0.004538281141892227 0.0 1.15888801222554 0.035066226879946934 0.0 -0.15982862408302534 0.0975895770760016 0.0 -0.089111278527332 0.17502826968429414 0.0 0.025551201507807025 0.17615542433957682 0.0 -0.03392439764640807 0.14445510877369547 0.0 0.12382001417887124 0.1171591916370831 0.0 -0.10181832785443598 0.12427838761353316 0.0 -0.010793022254735468 0.11908587397632517 0.0 0.1110523395013862 0.08889752629558238 0.0 -0.020885973251932897 0.10188905299849085 0.0 -0.06924635212566717 0.10912583472297113 0.0 0.987525704917819 0.11599132152053916 0.0 -0.09412128271876284 -0.20217484056881943 0.0 0.9272374017530483 -0.14477252380636568 0.0 0.9665796989873492 -0.21643837270762664 0.0 0.9162966119393718 -0.21680508385586886 0.0 0.892429617099814 -0.1336188489320336 0.0 0.8304037380847887 0.06482540375715701 0.0 0.8175623603344926 -0.11970546628333309 0.0 0.8491380616864218 0.005292393347687568 0.0 0.8170777504582427 -0.03566944552786867 0.0 0.8606085096489852 -0.07306728483631275 0.0 0.5866933240420228 -0.044454751258518686 0.0 0.7092590704874193 -0.0491563951647075 0.0 0.5104632127304921 -0.1372027180803658 0.0 0.7617350665688123 0.02435443055428742 0.0 0.8087774196500203 0.10070943681064694 0.0 0.6495526785482515 0.04199463274755029 0.0 0.7502368403922074 0.03228977095809448 0.0 0.7802386638703965 0.07639458562097173 0.0 0.40135845166642636 -0.012199083631362592 0.0 0.6610952696718619 0.08738562539389404 0.0 0.4952026308026268 0.03783666325177392 0.0 0.46223440939442784 0.167943442034882 0.0 0.5212307434689947 0.2307318800756077 0.0 0.4201618144183101 0.07329540716129515 0.0 0.47847943406722554 0.1411466468833672 0.0 0.4572603879440195 0.12087112450392949 0.0 0.44370856037312867 0.1275493641470087 0.0 0.8527070097599435 0.12566374325650834 0.0 0.639117564416386 0.311577315272962 0.0 1.0591310154684939 0.012898733535096702 0.0 0.600495850678688 0.11615777154123857 0.0 0.517