<?xml version="1.0"?>
<VTKFile type="UnstructuredGrid"  version="0.1"  >
<UnstructuredGrid>
<Piece  NumberOfPoints="1289" NumberOfCells="2413">
<Points>
<DataArray  type="Float64"  NumberOfComponents="3"  format="ascii">0 0 0  0 0.41 0  2.2 0.41 0  2.2 0 0  0.1 0.1 0  0.1 0.3 0  0.8 0.3 0  0.8 0.1 0  0.25 0.2 0  0.248976 0.210065 0  0.245948 0.219718 0  0.241038 0.228563 0  0.234448 0.23624 0  0.226448 0.242432 0  0.217365 0.246888 0  0.207571 0.249423 0  0.197468 0.249936 0  0.187467 0.248404 0  0.17798 0.24489 0  0.169395 0.239539 0  0.162062 0.232569 0  0.156283 0.224265 0  0.152293 0.214968 0  0.150257 0.205058 0  0.150257 0.194942 0  0.152293 0.185032 0  0.156283 0.175735 0  0.162062 0.167431 0  0.169395 0.160461 0  0.17798 0.15511 0  0.187467 0.151596 0  0.197468 0.150064 0  0.207571 0.150577 0  0.217365 0.153112 0  0.226448 0.157568 0  0.234448 0.16376 0  0.241038 0.171437 0  0.245948 0.180282 0  0.248976 0.189935 0  1.1 0 0  1.1 0.41 0  0.1 0.2 0  0.45 0.1 0  0.45 0.3 0  0.55 0 0  0.275 0.1 0  0.275 0.3 0  0.275 0 0  0.55 0.41 0  0 0.205 0  0.825 0 0  0.825 0.41 0  0.275 0.41 0  0.1 0.15 0  0.1875 0.1 0  0.1 0.25 0  0.1875 0.3 0  0.132322 0.2 0  0.241426 0.253518 0  0.241426 0.146482 0  0.264574 0.17974 0  0.264574 0.22026 0  0.138434 0.187348 0  0.153372 0.150948 0  0.148413 0.164094 0  0.176495 0.136535 0  0.22768 0.143571 0  0.138434 0.212652 0  0.148413 0.235906 0  0.176495 0.263465 0  0.22768 0.256429 0  0.23125 0.3 0  0.24769 0.24094 0  0.23125 0.1 0  0.24769 0.15906 0  0.26253 0.193641 0  0.190482 0.137872 0  0.166753 0.146661 0  0.157737 0.244461 0  0.190482 0.262128 0  0.203107 0.261264 0  0.253635 0.22977 0  0.203107 0.138736 0  0.253635 0.17023 0  0.261028 0.206206 0  0.167707 0.251809 0  0.143629 0.224191 0  0.215302 0.2591 0  0.270465 0.245894 0  0.215302 0.1409 0  0.270465 0.154106 0  0.284052 0.202587 0  0.14375 0.3 0  0.209375 0.3 0  0.225966 0.278501 0  0.209375 0.1 0  0.225966 0.121499 0  0.211613 0.273759 0  0.211613 0.126241 0  0.143629 0.175809 0  0.1 0.175 0  0.133484 0.164832 0  0.144491 0.249539 0  0.1 0.225 0  0.133484 0.235168 0  0.3625 0.3 0  0.25691 0.253381 0  0.25691 0.146619 0  0.277205 0.188698 0  0.184724 0.275712 0  0.237372 0.268285 0  0.184724 0.124288 0  0.237372 0.131715 0  0.197578 0.273149 0  0.193656 0.286994 0  0.197578 0.126851 0  0.193656 0.113006 0  0.122953 0.187671 0  0.118362 0.153758 0  0.155372 0.258107 0  0.122953 0.212329 0  0.118362 0.246242 0  0.276394 0.27264 0  0.276394 0.12736 0  0.280965 0.170013 0  0.253125 0.3 0  0.14375 0.1 0  0.253125 0.1 0  0.269489 0.26014 0  0.269489 0.13986 0  0.303639 0.184297 0  0.165625 0.3 0  0.134742 0.273113 0  0.257831 0.274737 0  0.255279 0.128499 0  0.3625 0.1 0  0.165625 0.1 0  0.162031 0.132368 0  0.134955 0.126405 0  0.149334 0.125568 0  0.142936 0.139597 0  0.12695 0.140259 0  0.242514 0.285501 0  0.242514 0.114499 0  0.1 0.125 0  0.117483 0.12555 0  0.11154 0.139776 0  0.121875 0.1 0  0.109143 0.1125 0  0.126805 0.114 0  0.220313 0.29129 0  0.351562 0.287369 0  0.207222 0.2866 0  0.220312 0.10871 0  0.1375 0 0  0.20625 0 0  0.207222 0.1134 0  0.11722 0.17118 0  0.1 0.1625 0  0.0778409 0.16875 0  0.0862762 0.15625 0  0 0.15375 0  0 0.1025 0  0.11722 0.22882 0  0.1 0.2375 0  0 0.3075 0  0.0862762 0.23125 0  0.0598995 0.222547 0  0.0860223 0.2125 0  0.289584 0.181469 0  0.300267 0.16446 0  0.163832 0.269071 0  0.149597 0.273325 0  0.1 0.275 0  0.268498 0.285953 0  0.31875 0.3 0  0.294154 0.254672 0  0.296875 0.3 0  0.293558 0.271845 0  0.285095 0.286799 0  0.324298 0.264316 0  0.307866 0.263745 0  0.317093 0.234901 0  0.315485 0.281219 0  0.316547 0.250625 0  0.344693 0.243731 0  0.331592 0.251147 0  0.35129 0.270663 0  0.338689 0.263683 0  0.340625 0.3 0  0.249849 0.264383 0  0.265097 0.11422 0  0.284688 0.156136 0  0.242188 0.324017 0  0.0856613 0.2625 0  0.132812 0.0612217 0  0.264062 0.0612217 0  0.198437 0.07598340000000001 0  0.0860223 0.1375 0  0.0794526 0.191089 0  0.285228 0.140397 0  0.298655 0.148737 0  0.31875 0.1 0  0.327335 0.15374 0  0.296875 0.1 0  0.312289 0.155283 0  0.313348 0.135607 0  0.321802 0.173916 0  0.298433 0.134116 0  0.112124 0.2625 0  0.127526 0.259083 0  0.121875 0.3 0  0.0682687 0.241503 0  0.1 0.2875 0  0.117762 0.28125 0  0.107813 0.3 0  0.103906 0.313849 0  0.0778409 0.28125 0  0.1375 0.41 0  0.0862762 0.29375 0  0.08886860000000001 0.24375 0  0.307812 0.338778 0  0.307812 0.292227 0  0.33216 0.279164 0  0.387888 0.266414 0  0.264063 0.31948 0  0.110937 0.07598340000000001 0  0.242188 0.07598340000000001 0  0.319914 0.11839 0  0.340625 0.1 0  0.334448 0.133793 0  0.329687 0.108539 0  0.346259 0.118491 0  0.360334 0.173636 0  0.327539 0.205033 0  0.132812 0.288712 0  0.362436 0.278836 0  0.368105 0.259418 0  0.4125 0.41 0  0.329687 0.324017 0  0.329687 0.292306 0  0.285938 0.318952 0  0.417187 0.338778 0  0.324481 0.14148 0  0.351562 0.106771 0  0.40625 0.1 0  0.341028 0.168342 0  0.319221 0.190479 0  0.335292 0.184501 0  0.305563 0.20794 0  0.220313 0.31948 0  0.132812 0.332772 0  0.0865876 0.311259 0  0.0598995 0.302453 0  0.0906541 0.343255 0  0.353543 0.255837 0  0.36574 0.237633 0  0.405007 0.254279 0  0.275795 0.352123 0  0.4125 0 0  0.35493 0.137394 0  0.366563 0.120618 0  0.35917 0.205246 0  0.198438 0.318952 0  0.0626109 0.263892 0  0.40625 0.3 0  0.354809 0.155936 0  0.386512 0.146872 0  0.373101 0.159939 0  0.384375 0.1 0  0.343394 0.19929 0  0.350682 0.185683 0  0.368101 0.189748 0  0.344016 0.221511 0  0.391108 0.213329 0  0.376279 0.204783 0  0.398843 0.182768 0  0.375804 0.222746 0  0.390665 0.196958 0  0.394004 0.23518 0  0.359883 0.222828 0  0.419908 0.204359 0  0.404243 0.204783 0  0.412615 0.224526 0  0.20625 0.41 0  0.165625 0.325257 0  0.0347982 0.244954 0  0.379558 0.247154 0  0.34165 0.147603 0  0.372264 0.136992 0  0.388988 0.121989 0  0.373437 0.108554 0  0.351562 0.31948 0  0.391367 0.16527 0  0.399572 0.223324 0  0.452011 0.227371 0  0.40877 0.239392 0  0.431491 0.237337 0  0.421224 0.250459 0  0.449619 0.262098 0  0.418865 0.276779 0  0.437063 0.252274 0  0.415673 0.263227 0  0.430988 0.266772 0  0.402767 0.273419 0  0.452967 0.244883 0  0.428125 0.3 0  0.408502 0.286186 0  0.384375 0.3 0  0.392267 0.285807 0  0.465927 0.219339 0  0.43489 0.283846 0  0.376424 0.286289 0  0.625 0.3 0  0.473533 0.205186 0  0.461713 0.255517 0  0.5375 0.3 0  0.465725 0.235405 0  0.44631 0.201425 0  0.471875 0.3 0  0.494307 0.227729 0  0.459448 0.206736 0  0.462294 0.180792 0  0.478933 0.227536 0  0.486793 0.21381 0  0.486322 0.251373 0  0.50065 0.215318 0  0.54005 0.175389 0  0.474633 0.189893 0  0.512916 0.208697 0  0.49531 0.199967 0  0.475889 0.175275 0  0.625 0.1 0  0.459311 0.153933 0  0.513645 0.242704 0  0.392892 0.248539 0  0.374815 0.271913 0  0.365974 0.14871 0  0.395312 0.109184 0  0.417061 0.123981 0  0.483196 0.277003 0  0.381967 0.179632 0  0.429898 0.219374 0  0.433473 0.206165 0  0.43149 0.181038 0  0.444208 0.215487 0  0.472985 0.247309 0  0.49375 0.3 0  0.475579 0.262714 0  0.49916 0.274293 0  0.501175 0.184809 0  0.514164 0.225681 0  0.543648 0.214977 0  0.5341630000000001 0.23481 0  0.527396 0.216171 0  0.5375 0.1 0  0.534548 0.202315 0  0.561545 0.192513 0  0.5494289999999999 0.201221 0  0.570923 0.218346 0  0.412582 0.149833 0  0.489327 0.264745 0  0.502439 0.254775 0  0.462391 0.271166 0  0.496775 0.241732 0  0.5294410000000001 0.268606 0  0.482812 0.291099 0  0.46879 0.285038 0  0.452663 0.284065 0  0.51789 0.257882 0  0.53408 0.252026 0  0.560142 0.243543 0  0.545708 0.243474 0  0.547532 0.229019 0  0.55282 0.265323 0  0.398971 0.153424 0  0.400349 0.135684 0  0.410135 0.168145 0  0.428823 0.161323 0  0.415266 0.183779 0  0.329687 0.0810483 0  0.395312 0.0612217 0  0.373437 0.318952 0  0.439062 0.324017 0  0.561816 0.229354 0  0.585029 0.239287 0  0.431827 0.139854 0  0.446796 0.168929 0  0.351562 0.07598340000000001 0  0.395313 0.318944 0  0.54337 0.150762 0  0.460937 0.31948 0  0.418412 0.137529 0  0.428125 0.1 0  0.442783 0.152332 0  0.450742 0.134294 0  0.373437 0.0805201 0  0.384383 0.342558 0  0.482812 0.318952 0  0.429239 0.127457 0  0.444274 0.117405 0  0.426548 0.113815 0  0.49375 0.1 0  0.488954 0.113984 0  0.457973 0.121842 0  0.471621 0.137346 0  0.515625 0.325257 0  0.48125 0.41 0  0.417187 0.07598340000000001 0  0.496363 0.126778 0  0.479043 0.155715 0  0.439062 0.0805201 0  0.481795 0.126919 0  0.471875 0.1 0  0.489227 0.142159 0  0.515625 0.1 0  0.520062 0.147117 0  0.501244 0.161791 0  0.505431 0.112984 0  0.505344 0.14029 0  0.526563 0.119081 0  0.5181750000000001 0.131908 0  0.539868 0.136937 0  0.460937 0.108383 0  0.474242 0.114415 0  0.460937 0.0810483 0  0.487841 0.167168 0  0.526563 0.0612217 0  0.526563 0.106406 0  0.537619 0.112743 0  0.58125 0.1 0  0.559375 0.1 0  0.482812 0.08105569999999999 0  0.471883 0.0587655 0  0.570312 0.129396 0  0.548437 0.07598340000000001 0  0.504687 0.08105569999999999 0  0.49375 0.0470127 0  0.570312 0.112663 0  0.592798 0.12103 0  0.553986 0.12103 0  0.570312 0.0805201 0  0.48125 0 0  0.114787 0.2 0  0.160769 0.284765 0  0.175816 0.288361 0  0.162602 0.116048 0  0.154687 0.07598340000000001 0  0.176562 0.0805201 0  0.0598995 0.147547 0  0.307812 0.109924 0  0.291279 0.117157 0  0.278491 0.112989 0  0.285937 0.07598340000000001 0  0.307812 0.0805201 0  0.296928 0.196743 0  0.318141 0.218507 0  0.330208 0.227509 0  0.301397 0.225668 0  0.302706 0.241401 0  0.292574 0.21424 0  0.282762 0.230935 0  0.284351 0.244775 0  0.269553 0.23261 0  0.278572 0.217242 0  0.226924 0.342606 0  0.446928 0.185396 0  0.515625 0.3 0  0.504687 0.288879 0  0.515256 0.276534 0  0.529479 0.285328 0  0.58125 0.3 0  0.541969 0.272936 0  0.559375 0.3 0  0.556796 0.282529 0  0.543473 0.287206 0  0.581429 0.267774 0  0.566728 0.271171 0  0.570869 0.255585 0  0.577404 0.283865 0  0.603125 0.3 0  0.597531 0.28035 0  0.570312 0.338778 0  0.592188 0.292492 0  0.603513 0.256094 0  0.614063 0.286265 0  0.610329 0.27064 0  0.632708 0.251285 0  0.657223 0.261594 0  0.618789 0.257807 0  0.614188 0.22987 0  0.630935 0.265614 
[...]
<PointData  Vectors="v"> 
	<DataArray  type="Float64"  Name="v"  NumberOfComponents="3" format="ascii">
0.0 0.0 0.0 0.0 0.0 0.0 0.0 0.0 0.0 0.0 0.0 0.0 0.7916900336913814 -0.17748064258210614 0.0 0.8483328134856534 0.2039256306492931 0.0 0.5575824004624194 -0.055417339057556234 0.0 1.023551760411967 0.12788118678182245 0.0 0.0 0.0 0.0 0.0 0.0 0.0 0.0 0.0 0.0 0.0 0.0 0.0 0.0 0.0 0.0 0.0 0.0 0.0 0.0 0.0 0.0 0.0 0.0 0.0 0.0 0.0 0.0 0.0 0.0 0.0 0.0 0.0 0.0 0.0 0.0 0.0 0.0 0.0 0.0 0.0 0.0 0.0 0.0 0.0 0.0 0.0 0.0 0.0 0.0 0.0 0.0 0.0 0.0 0.0 0.0 0.0 0.0 0.0 0.0 0.0 0.0 0.0 0.0 0.0 0.0 0.0 0.0 0.0 0.0 0.0 0.0 0.0 0.0 0.0 0.0 0.0 0.0 0.0 0.0 0.0 0.0 0.0 0.0 0.0 0.0 0.0 0.0 0.0 0.0 0.0 0.0 0.0 0.0 0.0 0.0 0.0 0.0 0.0 0.0 0.7662076998574898 0.015911592342611917 0.0 1.1606563183474843 0.31728198712144673 0.0 0.9535077452478011 0.012376790174998877 0.0 0.0 0.0 0.0 1.28468080738131 -0.06340529028973405 0.0 1.318237220073125 -0.011250356703273135 0.0 0.0 0.0 0.0 0.0 0.0 0.0 1.0 0.0 0.0 0.0 0.0 0.0 0.0 0.0 0.0 0.0 0.0 0.0 0.8428448421644463 -0.2126562218352666 0.0 1.1415677407047824 -0.2935283922864522 0.0 0.8757171123853202 0.23808484545052358 0.0 1.1903597939455062 0.2847307834663346 0.0 0.4336756378618711 0.014666102792494567 0.0 0.24419803797835626 0.013402576582520507 0.0 0.17504048305986258 -0.01104721031328697 0.0 -0.0472740570640354 -0.004210858554314755 0.0 -0.051425669240432716 0.15009831660340672 0.0 0.33539826055004857 -0.2618946983546072 0.0 0.8640515359881321 -0.6583632127470943 0.0 0.642672618308109 -0.6772109067066873 0.0 1.2325183266697826 -0.5941141208122342 0.0 0.30728160067718086 0.007136391311140203 0.0 0.33957668760138093 0.2915650776878015 0.0 0.6685782681818806 0.6930854608855512 0.0 1.2566925055439948 0.6053960262212864 0.0 0.38240139876978047 -0.02038809531238284 0.0 1.2989023027712598 0.13308958724732664 0.0 0.00025444679373861766 0.07687856791826779 0.0 1.259580659481371 -0.16565238793273637 0.0 -0.01768255232261733 -0.021996522350217377 0.0 -0.03824378335349826 0.06110678933575181 0.0 1.2159226282857631 -0.3938225806853776 0.0 1.116341572673211 -0.719519379069053 0.0 0.8960854626070539 0.7980117952901943 0.0 1.3048758681889179 0.4051043330334016 0.0 1.0064960879368676 0.16280834228985747 0.0 -0.037440387835859824 0.13159825469776693 0.0 0.9141195266133808 -0.1581370552321744 0.0 -0.030327090248269174 -0.015561841614932827 0.0 -0.03878758218957416 0.12159904975643453 0.0 1.0953825119922826 0.7461300008774465 0.0 0.4600702462953177 0.5551353559596249 0.0 0.637664047244245 0.019820526525494132 0.0 0.1863145677792066 0.06486803033007983 0.0 0.5466751078930178 -0.028509677506098743 0.0 0.06265337723902162 -0.013422191353093 0.0 -0.13909182900683642 0.04084832167949985 0.0 0.9838797772672192 0.29461714262611755 0.0 1.2750686658284975 0.20300107384734967 0.0 1.367745920953433 0.15642274711618767 0.0 1.2131219171050631 -0.235770928914999 0.0 1.2874457879636085 -0.18938002834661197 0.0 1.3786686747766805 0.22079135801399816 0.0 1.3008803745230981 -0.24075678880011528 0.0 0.44222865816855367 -0.5303849019322475 0.0 0.8038831311843131 -0.12072865798468031 0.0 0.6730283642964127 -0.40014422075382344 0.0 0.9114055661453541 0.6064386885843973 0.0 0.8083719985309158 0.15763523064830343 0.0 0.6969253034101636 0.43741055414261487 0.0 1.125020975706215 -0.1881089611899035 0.0 0.30963582194141975 0.027621668881428574 0.0 0.20014909587548868 -0.00014805211993329365 0.0 -0.10359549481729152 0.007697011508436463 0.0 1.3422087181837319 0.41032748057725743 0.0 1.0275913272336088 0.03401524036873201 0.0 1.286293310684049 -0.4260147211864698 0.0 0.8983991758924228 -0.05218473477764959 0.0 1.385309635550071 0.3340348765686797 0.0 1.3024306045144154 0.3181165026409582 0.0 1.3193443210874871 -0.3513117676598944 0.0 1.2499624995287142 -0.31922050810737757 0.0 0.5864314842463545 -0.14111743078929836 0.0 0.7979596916452031 -0.31201778356724785 0.0 1.057974281901337 0.6049560086088934 0.0 0.6019850494602325 0.16977218592175905 0.0 0.829570208838327 0.34286804606304605 0.0 1.0957462621342395 -0.03943741780432449 0.0 0.8970469300963749 -0.011675854825343793 0.0 -0.051154357437732015 -0.04165031973440913 0.0 1.3202406900656847 0.054841732434037394 0.0 0.9238949455262089 -0.2941922700828972 0.0 1.277107224797514 -0.10746997475835035 0.0 0.6087427898485194 -0.004596492839626734 0.0 0.4254668402941295 0.006459209842473472 0.0 -0.16328055130478708 -0.08732589840235959 0.0 1.0810098394366434 0.3103350656861546 0.0 0.9690321555132643 0.38567160228664515 0.0 1.1930268188498798 0.013369659040357154 0.0 0.925329027860537 -0.03422433330324785 0.0 1.312152803588042 0.09366669464004175 0.0 1.0214139683670418 -0.30848364955398927 0.0 1.0875122711797194 -0.5467030528303227 0.0 0.9313278272359703 -0.36616124140764145 0.0 1.0019398865709321 -0.41282911647527654 0.0 0.9377530269472685 -0.5229129307032999 0.0 0.8671616991736952 -0.38533241531660795 0.0 1.3634181499116416 0.08745184967264864 0.0 1.2931561099161892 -0.1352069110126496 0.0 0.8509056246350927 -0.216035341572743 0.0 0.8778957150551439 -0.2884202609599288 0.0 0.8528027197420673 -0.2788028327840655 0.0 0.8450464358032849 -0.23404815011663116 0.0 0.8506826982395899 -0.23175423805864662 0.0 0.8937456353285237 -0.295874285959237 0.0 1.3447082234511196 0.17433645625525587 0.0 1.171979281460386 -0.23634996064055172 0.0 1.3633414596689346 0.24858679915458054 0.0 1.2960683155572552 -0.20134026651286113 0.0 0.0 0.0 0.0 0.0 0.0 0.0 1.2999346909510794 -0.26906873671082066 0.0 0.7165476923377841 -0.24840359476012341 0.0 0.821121094497514 -0.19193913620813136 0.0 0.8725154390630852 -0.09403118729394798 0.0 0.8629409851010285 -0.14597946797094663 0.0 0.9375 0.0 0.0 0.7500000000000001 0.0 0.0 0.7349142119851979 0.2815080379768463 0.0 0.8348503395113966 0.21232664925843342 0.0 0.7499999999999999 0.0 0.0 0.8767889436180185 0.1401385672900813 0.0 0.9319389323537792 0.052913321840963375 0.0 0.8531033466718855 0.05993775878183483 0.0 -0.11826726040678003 -0.04302961094654372 0.0 0.010569470083449994 -0.07310999668891535 0.0 1.1671416319439556 0.538234951614672 0.0 1.054729273116301 0.462177774036582 0.0 0.891769919046046 0.24771332680365948 0.0 1.3360305127520413 -0.006355201747932298 0.0 1.258752826614306 -0.13239533133269493 0.0 0.5448022517550114 -0.05089248497078027 0.0 1.3028621593829508 -0.07868241628325132 0.0 1.088799474154078 -0.09409269871779392 0.0 1.3272881721920509 -0.0601484422491511 0.0 0.9278368465045942 -0.21845058225023395 0.0 0.8810213533918457 -0.1408980018151462 0.0 0.14836253428621005 -0.10950757516923033 0.0 1.2479680834000326 -0.17078413950316013 0.0 0.529647337101211 -0.1436205378722841 0.0 0.40851035764893573 -0.2859489363821775 0.0 0.5875201383102826 -0.22507314273313037 0.0 1.0292331572198046 -0.29388360484735726 0.0 0.91461856991182 -0.2770792678804385 0.0 1.2089549546794702 -0.1768093085470851 0.0 0.7747490041782685 -0.003696727300737672 0.0 1.2532495888437605 -0.07010155716267207 0.0 0.06542431037010302 -0.02926678142039916 0.0 1.1401752653835282 0.05343215869113441 0.0 0.8909149965964457 0.18572790422790728 0.0 0.6851083875160997 -0.14869078180681614 0.0 1.0215390979665047 -0.04795957397445505 0.0 1.0016253562219373 -0.17736773659434987 0.0 0.862878303562804 -0.16490520371318146 0.0 0.8783962002950311 -0.010079859490932748 0.0 0.40814373004892546 0.002258344890948108 0.0 0.22109731486578285 -0.03192284967056995 0.0 1.2875837883610344 0.010545514205188223 0.0 0.2409307188225263 -0.10641343745660524 0.0 1.2878774903020747 -0.025229552292526155 0.0 0.1570884519894244 -0.08281835020346982 0.0 0.59824922379728 -0.007415610998251338 0.0 -0.06891587686537619 -0.16236756075794245 0.0 0.6234645915101308 0.000163589074777249 0.0 0.8951827830730749 0.3012010611034487 0.0 0.901986872133635 0.41625574571697443 0.0 0.8966248587951899 0.2591999920296138 0.0 0.9171566623249002 0.11901722219191951 0.0 0.8746140583289117 0.2212893613834063 0.0 0.9206768325394286 0.30021329139852926 0.0 0.8666659930230614 0.22758697137126124 0.0 0.8083753108197319 0.1760261100846968 0.0 0.8732412282488539 0.16417312981949855 0.0 0.0 0.0 0.0 0.8476106629191446 0.17628189372382314 0.0 0.8791620596470106 0.18092941889925448 0.0 1.0298560056682937 -0.07069448208456645 0.0 1.3050038723428803 -0.13218769039147477 0.0 1.1902538065612651 -0.22670683775202402 0.0 0.8184206497185099 -0.28856529454290547 0.0 1.1918235216749506 0.009289502889701906 0.0 0.7087266582296319 -0.1553162959264918 0.0 1.1047203268471935 -0.10202411591732473 0.0 1.1118980106725764 0.002239788776539248 0.0 1.3019425462077696 0.04772239581126207 0.0 0.7196637233824151 -0.019048628004003875 0.0 1.267595575030926 0.02275284366242891 0.0 1.1531467542363 0.0331652677797294 0.0 0.07019470425802621 -0.2666495050236409 0.0 -0.24438739547385085 -0.18835994545351595 0.0 0.9646496463064504 0.32872475974119253 0.0 1.0830428921564037 -0.27270683174059024 0.0 0.7663324956873594 -0.3390910968322237 0.0 0.0 0.0 0.0 1.0974645804592633 -0.11525879559501047 0.0 1.2559805571679894 -0.19520128210882046 0.0 1.1928844604393958 -0.03678756098305862 0.0 0.8814962680963141 -0.0492957723028753 0.0 0.47132365553385946 -0.04762280673412858 0.0 1.294793742592541 0.06688847089757054 0.0 1.2890613450865618 0.22209471305526537 0.0 0.06452652683229917 -0.2096783999556854 0.0 -0.21387350387130324 -0.1465090092724355 0.0 -0.1766010376464329 -0.22892368774814434 0.0 -0.18910606780108313 -0.03935064889314987 0.0 1.1574906373604432 0.1170264718057553 0.0 0.7800885025885048 0.17991396317790245 0.0 0.7823686298221851 0.15120211714753956 0.0 0.788493618814605 0.1082455047000242 0.0 0.6216455790977257 0.10600027244911153 0.0 0.7177941459440451 -0.32864369258917475 0.0 0.24482591460779968 -0.3844524886945051 0.0 0.49506076392866916 -0.2936990390565503 0.0 0.9324177258626037 -0.014236771738632222 0.0 0.0 0.0 0.0 0.7304042426957001 -0.03062052363658534 0.0 1.1716992197603435 0.07293963384055778 0.0 -0.2539346417587498 -0.3813883741075158 0.0 1.0892148608149586 0.19059304583065795 0.0 0.9042358893820351 0.11795773235066766 0.0 1.001944156308332 -0.11639935765526166 0.0 0.3554476065063058 -0.1542254373568335 0.0 0.7503978296823175 -0.008827179029018625 0.0 0.40961423183868284 -0.15939668116319491 0.0 1.3148129596324984 0.15837329173361497 0.0 -0.2536901884697656 -0.2827625138177543 0.0 -0.1554467300275096 -0.2986163565992668 0.0 -0.14358866218564936 -0.3576990395474302 0.0 -0.0735980596673881 -0.2910231438597314 0.0 -0.17362291796578722 -0.43575119096869 0.0 -0.21446289752494213 -0.4232662330434147 0.0 0.17651307989518777 -0.22513230409449714 0.0 -0.0752971841775456 -0.4398685318946082 0.0 -0.09990196221898884 -0.3684741983384578 0.0 0.10951673169118764 -0.4113434125429393 0.0 -0.06326583902741516 -0.3795682376272889 0.0 0.02029589635390771 -0.2124909486939047 0.0 -0.09442479647560895 -0.3488395473749069 0.0 -0.08044782541279913 -0.3740805807123325 0.0 0.0 0.0 0.0 0.9470509974645651 0.2158121949834907 0.0 0.9522471398817346 0.04550006557283572 0.0 0.4529198440165229 -0.37312506647095145 0.0 0.4285406626120918 -0.09643797195030897 0.0 0.8578663055761866 0.010902853266940888 0.0 1.2371864174251754 0.14784903978145575 0.0 1.3144454101334584 0.12508623025971993 0.0 1.084073892854714 -0.13461873061134874 0.0 0.45132093231078324 -0.12651237035211646 0.0 -0.09882479825243758 -0.4277079716050176 0.0 0.06597230454029578 -0.03465210253488677 0.0 0.14138014620756434 -0.36407995914238056 0.0 0.0347963725718932 -0.2546696997823009 0.0 0.31536352198795337 -0.262638702273569 0.0 0.4155954678428089 -0.07302639466202082 0.0 0.8324016545099361 -0.13510325175501664 0.0 0.2675509485103023 -0.1822538261421801 0.0 0.6215232463074974 -0.2116563207746719 0.0 0.6150910339679703 -0.13861274322481648 0.0 0.8549001833429482 -0.21248910680838584 0.0 0.11983491894940476 -0.09368377095120073 0.0 0.9674412650155751 -0.05797871830631152 0.0 0.955638255572013 -0.1418501123360107 0.0 1.0612481297639316 -0.16579043826524387 0.0 1.003607192949501 -0.19801388467948589 0.0 0.2115233768200205 0.15882558557805473 0.0 0.8589652631448603 -0.05115611581035724 0.0 1.0719083758072534 -0.2292701075802779 0.0 1.161231544437555 -0.28813274630053964 0.0 0.42093720908592613 0.34381895687259034 0.0 0.26302454874582515 -0.028170160337871394 0.0 1.1339592848787698 0.024770205947289348 0.0 0.12496574959940279 0.054770996255406934 0.0 0.2677418695322052 0.08921667298262785 0.0 0.9658771504524434 0.061276495003342896 0.0 0.34374581198257126 0.3283524428433855 0.0 0.29616157477996574 0.20009131976721223 0.0 0.7025244593965764 0.3968578050874168 0.0 0.2501073954788507 0.22543250731646958 0.0 0.4122388710288279 0.36903005683084333 0.0 0.2515878238710278 0.1469413773985267 0.0 0.4802257663686105 0.4270606728370974 0.0 0.8043258996211302 0.40634485279871496 0.0 0.6307895392124988 0.43238659688624637 0.0 0.5900316297547512 0.4755430744965711 0.0 0.6035615943174553 0.4828719289654659 0.0 0.8398210082013219 0.5146359451835398 0.0 0.6150371337445173 -0.077054596964591 0.0 1.07056801617157 0.47121594876367023 0.0 0.3687021458414728 0.3424610058660701 0.0 0.4231672428985271 -0.3558992278949003 0.0 0.9569237272647136 -0.28845033781172663 0.0 0.5663288225193512 -0.09233899177057313 0.0 1.32578632258574 0.20619756561448316 0.0 1.2857582797528206 0.28715460409415083 0.0 0.6566185997031094 0.09295220047478278 0.0 0.10328461205824942 -0.2811705240609284 0.0 -0.03167639621716083 -0.2256250718021043 0.0 0.10504887275189437 -0.0879364619042727 0.0 0.47985292999353335 0.07187806102072186 0.0 0.08554547548722156 -0.047300029990098094 0.0 0.18139520129249287 0.06665268356650592 0.0 0.9997785091417691 0.0850503736114869 0.0 0.3757385806505388 0.05661814974522316 0.0 0.6242907094806 0.14192366016687524 0.0 0.7739504429878538 0.5370199092729229 0.0 0.4623475630434329 0.41043045374680986 0.0 0.5927442252979205 0.45633818371981766 0.0 0.4641624106198778 0.4269374125316727 0.0 0.5735105535125872 0.4539079985606705 0.0 0.8134814642966126 0.15000803254261838 0.0 0.669153358975033 0.45686809237010484 0.0 0.6703081582361783 0.39790380437616923 0.0 0.6667821795697858 0.4313112576359679 0.0 0.5755187576584639 0.4444591735493595 0.0 0.8969631630580123 0.13411877837537564 0.0 0.42617307928543197 0.13053795280527924 0.0 0.34156074176359696 0.2338419309644252 0.0 0.5654462885808725 0.009940571596319036 0.0 0.27867409913607954 0.2618782464840743 0.0 0.6723956120105681 0.22305237550614498 0.0 0.8964522381569977 0.08752751696029411 0.0 0.8117434217341731 0.05695189988530789 0.0 0.8230460994477511 0.0030521880198395705 0.0 0.44473429405337234 0.27805634291903547 0.0 0.4875888537236304 0.3405501986523421 0.0 0.6168297544733922 0.3552454891103509 0.0 0.5139113303160172 0.39860223816884244 0.0 0.5198680008183846 0.45306296533453394 0.0 0.8187486651431481 0.188598192823436 0.0 0.727170063243197 0.011661305618191172 0.0 1.0751856947426293 0.1475215314447477 0.0 0.5458302517504816 -0.021338399032250172 0.0 0.8130845827029598 0.19594117127325622 0.0 0.2960108874030925 -0.10952646707423842 0.0 1.2138743952777056 0.03561874888623985 0.0 1.0151542627734977 0.13933078524442896 0.0 1.0382725499450587 -0.12593683918825443 0.0 0.9491588137858028 -0.009599487511605997 0.0 0.5568728052205153 0.4433965761074256 0.0 0.8051605385981162 0.18456203673258012 0.0 1.1675200416438585 0.3364833049101146 0.0 0.7981565868446108 0.319526264824892 0.0 1.178726423864906 0.07475941915770296 0.0 0.990396728754963 -0.10070962434257089 0.0 0.8520275111627671 0.30809244310973005 0.0 0.9706063493188795 0.027851805049921914 0.0 1.1386886427995853 0.2581549809065653 0.0 1.2427683811661525 0.28379543079659436 0.0 1.0389275899664139 0.369045664064632 0.0 1.2254522923399618 0.43928315896261144 0.0 1.20496119697223 0.1214310761349541 0.0 0.895327702407825 -0.08385161113689868 0.0 1.0062834083228605 0.04777259040258099 0.0 1.2744994550628352 0.34189336751228094 0.0 1.2551027765685854 0.38483045622104906 0.0 1.3054239090888968 0.3257515503119663 0.0 0.9769494468252716 0.28764548500384085 0.0 1.0589185123932348 0.3605756194553362 0.0 1.2180761797617943 0.4186491171194996 0.0 1.1603696288278447 0.48532247874426176 0.0 1.0412172360283989 0.01784789833752903 0.0 0.0 0.0 0.0 1.090941350178447 0.20844402174938073 0.0 1.0515512224478023 0.3987811763671207 0.0 1.046266402671143 0.5317899182161376 0.0 1.0694717110477403 0.24959361508961428 0.0 1.1206045190165543 0.43424119067656514 0.0 1.0721512878356696 0.3171989164528991 0.0 1.0822183554244094 0.4860907116404892 0.0 0.8878160843135365 0.22318067156847243 0.0 0.948692477692145 0.4023163798809991 0.0 0.9663114615545743 0.5246213857972272 0.0 0.9753485710320257 0.3128004296449291 0.0 1.0142815078914038 0.43448367805398636 0.0 0.908002156691937 0.26052573540099133 0.0 0.9608163581244658 0.34854906447731493 0.0 0.8723041951274358 0.2724845131854637 0.0 1.16340531063135 0.3650532816316072 0.0 1.1206659429993788 0.384547548887055 0.0 0.9934446336511918 0.2581375859740416 0.0 0.9479738488682444 0.5496374120621282 0.0 0.5905978531027111 0.07764956624546675 0.0 0.8734247444174628 0.21363997587730407 0.0 0.8496000652492324 0.19125418316775664 0.0 0.7020816722455508 -0.011060023749273697 0.0 0.7468124707579643 0.06841915563560802 0.0 0.9033755974550356 0.23427787519702284 0.0 0.7364146336869049 0.14921288172969024 0.0 0.7598949038560924 0.11102996940146226 0.0 0.6587864112298274 0.04847112095157693 0.0 0.8260032149361723 0.18950537139211734 0.0 0.49997237908331893 0.08642411924195383 0.0 0.7477053668361865 0.058839991537327364 0.0 0.6835779916606022 0.011690825847514533 0.0 0.8107582294081566 0.15173144419449358 0.0 0.6552275850184452 -0.004607292135632095 0.0 0.0 0.0 0.0 0.6504668900564521 0.012214736613533613 0.0 1.1137570092298719 0.40412773210043573 0.0 1.2106000858681634 0.3716330757915317 0.0 1.0864477230249285 -0.3924691235484109 0.0 0.8469615239967323 -0.19917702897041442 0.0 0.9572146275549489 -0.21729857116878434 0.0 0.8922665339966913 -0.07176613741180866 0.0 1.2545433459083026 -0.008948257437236418 0.0 1.156301583032074 -0.018159853365380573 0.0 1.2371796168616105 -0.04360501526114182 0.0 1.1560421458491639 -0.025797532368983554 0.0 1.1997237160588348 0.002803583035676375 0.0 -0.1878349775465436 -0.02597267510016058 0.0 -0.11404130770445668 -0.10254269656591232 0.0 0.01986241010028789 -0.20445184058982063 0.0 -0.0249614762597665 0.0075075402229268905 0.0 0.24552433178393163 -0.025471495292312355 0.0 -0.12330899990395272 0.04224713502863863 0.0 0.023120573282878285 0.09484233760599892 0.0 0.244560077450908 0.039271400694164224 0.0 0.0115325452762865 0.13192565364439465 0.0 -0.08090200228314472 0.10458573027177775 0.0 0.9735010623533192 0.07927209835045279 0.0 0.5154984558228842 0.20919974182980677 0.0 1.057351963386608 0.07191352813877566 0.0 0.9004621408363513 0.11586197097312546 0.0 0.7294394263591053 0.16602452087209968 0.0 0.9561955853341166 0.11340413852151826 0.0 1.2362170982516285 -0.15911036991141725 0.0 0.8435943679857326 0.16648565231721035 0.0 1.2080794353115718 -0.06339242870427077 0.0 1.0907205921845582 0.02848495371419994 0.0 1.0615162403484193 0.059407986928053186 0.0 1.1066043636152696 -0.039348173857716884 0.0 1.0273648279157455 0.05118526151638551 0.0 0.8561739344639093 0.16759985835725674 0.0 1.2177516193677258 -0.10201712737108916 0.0 1.224862398358112 -0.2415329774807438 0.0 1.272935265708308 -0.22153350722293721 0.0 0.9344424219299514 -0.09723274191436711 0.0 1.2646193463016875 -0.21379209359503484 0.0 1.1471203678779802 -0.1683001552332411 0.0 1.2667882648709223 -0.30546202296805514 0.0 1.2726335012146477 -0.2859698093683878 0.0 1.227730922570619 -0.3972063270087475 0.0 1.20589255622199 -0.43731511065508183 0.0 1.2320488262794023 -0.3148785180232043 0.0 0.956351840542916 -0.10767680101411883 0.0 1.2694117297715017 -0.38871956441180594 0.0 1.1311168182523463 -0.2665900376999614 0.0 0.9713338370948973 -0.24107539662825814 0.0 1.0682708255023048 -0.3900784091582428 0.0 0.7908803305102368 -0.10170168337400655 0.0 1.2333191479259373 -0.3546956067576533 0.0 1.2198069832786451 -0.3966