<?xml version="1.0"?>
<VTKFile type="UnstructuredGrid"  version="0.1"  >
<UnstructuredGrid>
<Piece  NumberOfPoints="1289" NumberOfCells="2413">
<Points>
<DataArray  type="Float64"  NumberOfComponents="3"  format="ascii">0 0 0  0 0.41 0  2.2 0.41 0  2.2 0 0  0.1 0.1 0  0.1 0.3 0  0.8 0.3 0  0.8 0.1 0  0.25 0.2 0  0.248976 0.210065 0  0.245948 0.219718 0  0.241038 0.228563 0  0.234448 0.23624 0  0.226448 0.242432 0  0.217365 0.246888 0  0.207571 0.249423 0  0.197468 0.249936 0  0.187467 0.248404 0  0.17798 0.24489 0  0.169395 0.239539 0  0.162062 0.232569 0  0.156283 0.224265 0  0.152293 0.214968 0  0.150257 0.205058 0  0.150257 0.194942 0  0.152293 0.185032 0  0.156283 0.175735 0  0.162062 0.167431 0  0.169395 0.160461 0  0.17798 0.15511 0  0.187467 0.151596 0  0.197468 0.150064 0  0.207571 0.150577 0  0.217365 0.153112 0  0.226448 0.157568 0  0.234448 0.16376 0  0.241038 0.171437 0  0.245948 0.180282 0  0.248976 0.189935 0  1.1 0 0  1.1 0.41 0  0.1 0.2 0  0.45 0.1 0  0.45 0.3 0  0.55 0 0  0.275 0.1 0  0.275 0.3 0  0.275 0 0  0.55 0.41 0  0 0.205 0  0.825 0 0  0.825 0.41 0  0.275 0.41 0  0.1 0.15 0  0.1875 0.1 0  0.1 0.25 0  0.1875 0.3 0  0.132322 0.2 0  0.241426 0.253518 0  0.241426 0.146482 0  0.264574 0.17974 0  0.264574 0.22026 0  0.138434 0.187348 0  0.153372 0.150948 0  0.148413 0.164094 0  0.176495 0.136535 0  0.22768 0.143571 0  0.138434 0.212652 0  0.148413 0.235906 0  0.176495 0.263465 0  0.22768 0.256429 0  0.23125 0.3 0  0.24769 0.24094 0  0.23125 0.1 0  0.24769 0.15906 0  0.26253 0.193641 0  0.190482 0.137872 0  0.166753 0.146661 0  0.157737 0.244461 0  0.190482 0.262128 0  0.203107 0.261264 0  0.253635 0.22977 0  0.203107 0.138736 0  0.253635 0.17023 0  0.261028 0.206206 0  0.167707 0.251809 0  0.143629 0.224191 0  0.215302 0.2591 0  0.270465 0.245894 0  0.215302 0.1409 0  0.270465 0.154106 0  0.284052 0.202587 0  0.14375 0.3 0  0.209375 0.3 0  0.225966 0.278501 0  0.209375 0.1 0  0.225966 0.121499 0  0.211613 0.273759 0  0.211613 0.126241 0  0.143629 0.175809 0  0.1 0.175 0  0.133484 0.164832 0  0.144491 0.249539 0  0.1 0.225 0  0.133484 0.235168 0  0.3625 0.3 0  0.25691 0.253381 0  0.25691 0.146619 0  0.277205 0.188698 0  0.184724 0.275712 0  0.237372 0.268285 0  0.184724 0.124288 0  0.237372 0.131715 0  0.197578 0.273149 0  0.193656 0.286994 0  0.197578 0.126851 0  0.193656 0.113006 0  0.122953 0.187671 0  0.118362 0.153758 0  0.155372 0.258107 0  0.122953 0.212329 0  0.118362 0.246242 0  0.276394 0.27264 0  0.276394 0.12736 0  0.280965 0.170013 0  0.253125 0.3 0  0.14375 0.1 0  0.253125 0.1 0  0.269489 0.26014 0  0.269489 0.13986 0  0.303639 0.184297 0  0.165625 0.3 0  0.134742 0.273113 0  0.257831 0.274737 0  0.255279 0.128499 0  0.3625 0.1 0  0.165625 0.1 0  0.162031 0.132368 0  0.134955 0.126405 0  0.149334 0.125568 0  0.142936 0.139597 0  0.12695 0.140259 0  0.242514 0.285501 0  0.242514 0.114499 0  0.1 0.125 0  0.117483 0.12555 0  0.11154 0.139776 0  0.121875 0.1 0  0.109143 0.1125 0  0.126805 0.114 0  0.220313 0.29129 0  0.351562 0.287369 0  0.207222 0.2866 0  0.220312 0.10871 0  0.1375 0 0  0.20625 0 0  0.207222 0.1134 0  0.11722 0.17118 0  0.1 0.1625 0  0.0778409 0.16875 0  0.0862762 0.15625 0  0 0.15375 0  0 0.1025 0  0.11722 0.22882 0  0.1 0.2375 0  0 0.3075 0  0.0862762 0.23125 0  0.0598995 0.222547 0  0.0860223 0.2125 0  0.289584 0.181469 0  0.300267 0.16446 0  0.163832 0.269071 0  0.149597 0.273325 0  0.1 0.275 0  0.268498 0.285953 0  0.31875 0.3 0  0.294154 0.254672 0  0.296875 0.3 0  0.293558 0.271845 0  0.285095 0.286799 0  0.324298 0.264316 0  0.307866 0.263745 0  0.317093 0.234901 0  0.315485 0.281219 0  0.316547 0.250625 0  0.344693 0.243731 0  0.331592 0.251147 0  0.35129 0.270663 0  0.338689 0.263683 0  0.340625 0.3 0  0.249849 0.264383 0  0.265097 0.11422 0  0.284688 0.156136 0  0.242188 0.324017 0  0.0856613 0.2625 0  0.132812 0.0612217 0  0.264062 0.0612217 0  0.198437 0.07598340000000001 0  0.0860223 0.1375 0  0.0794526 0.191089 0  0.285228 0.140397 0  0.298655 0.148737 0  0.31875 0.1 0  0.327335 0.15374 0  0.296875 0.1 0  0.312289 0.155283 0  0.313348 0.135607 0  0.321802 0.173916 0  0.298433 0.134116 0  0.112124 0.2625 0  0.127526 0.259083 0  0.121875 0.3 0  0.0682687 0.241503 0  0.1 0.2875 0  0.117762 0.28125 0  0.107813 0.3 0  0.103906 0.313849 0  0.0778409 0.28125 0  0.1375 0.41 0  0.0862762 0.29375 0  0.08886860000000001 0.24375 0  0.307812 0.338778 0  0.307812 0.292227 0  0.33216 0.279164 0  0.387888 0.266414 0  0.264063 0.31948 0  0.110937 0.07598340000000001 0  0.242188 0.07598340000000001 0  0.319914 0.11839 0  0.340625 0.1 0  0.334448 0.133793 0  0.329687 0.108539 0  0.346259 0.118491 0  0.360334 0.173636 0  0.327539 0.205033 0  0.132812 0.288712 0  0.362436 0.278836 0  0.368105 0.259418 0  0.4125 0.41 0  0.329687 0.324017 0  0.329687 0.292306 0  0.285938 0.318952 0  0.417187 0.338778 0  0.324481 0.14148 0  0.351562 0.106771 0  0.40625 0.1 0  0.341028 0.168342 0  0.319221 0.190479 0  0.335292 0.184501 0  0.305563 0.20794 0  0.220313 0.31948 0  0.132812 0.332772 0  0.0865876 0.311259 0  0.0598995 0.302453 0  0.0906541 0.343255 0  0.353543 0.255837 0  0.36574 0.237633 0  0.405007 0.254279 0  0.275795 0.352123 0  0.4125 0 0  0.35493 0.137394 0  0.366563 0.120618 0  0.35917 0.205246 0  0.198438 0.318952 0  0.0626109 0.263892 0  0.40625 0.3 0  0.354809 0.155936 0  0.386512 0.146872 0  0.373101 0.159939 0  0.384375 0.1 0  0.343394 0.19929 0  0.350682 0.185683 0  0.368101 0.189748 0  0.344016 0.221511 0  0.391108 0.213329 0  0.376279 0.204783 0  0.398843 0.182768 0  0.375804 0.222746 0  0.390665 0.196958 0  0.394004 0.23518 0  0.359883 0.222828 0  0.419908 0.204359 0  0.404243 0.204783 0  0.412615 0.224526 0  0.20625 0.41 0  0.165625 0.325257 0  0.0347982 0.244954 0  0.379558 0.247154 0  0.34165 0.147603 0  0.372264 0.136992 0  0.388988 0.121989 0  0.373437 0.108554 0  0.351562 0.31948 0  0.391367 0.16527 0  0.399572 0.223324 0  0.452011 0.227371 0  0.40877 0.239392 0  0.431491 0.237337 0  0.421224 0.250459 0  0.449619 0.262098 0  0.418865 0.276779 0  0.437063 0.252274 0  0.415673 0.263227 0  0.430988 0.266772 0  0.402767 0.273419 0  0.452967 0.244883 0  0.428125 0.3 0  0.408502 0.286186 0  0.384375 0.3 0  0.392267 0.285807 0  0.465927 0.219339 0  0.43489 0.283846 0  0.376424 0.286289 0  0.625 0.3 0  0.473533 0.205186 0  0.461713 0.255517 0  0.5375 0.3 0  0.465725 0.235405 0  0.44631 0.201425 0  0.471875 0.3 0  0.494307 0.227729 0  0.459448 0.206736 0  0.462294 0.180792 0  0.478933 0.227536 0  0.486793 0.21381 0  0.486322 0.251373 0  0.50065 0.215318 0  0.54005 0.175389 0  0.474633 0.189893 0  0.512916 0.208697 0  0.49531 0.199967 0  0.475889 0.175275 0  0.625 0.1 0  0.459311 0.153933 0  0.513645 0.242704 0  0.392892 0.248539 0  0.374815 0.271913 0  0.365974 0.14871 0  0.395312 0.109184 0  0.417061 0.123981 0  0.483196 0.277003 0  0.381967 0.179632 0  0.429898 0.219374 0  0.433473 0.206165 0  0.43149 0.181038 0  0.444208 0.215487 0  0.472985 0.247309 0  0.49375 0.3 0  0.475579 0.262714 0  0.49916 0.274293 0  0.501175 0.184809 0  0.514164 0.225681 0  0.543648 0.214977 0  0.5341630000000001 0.23481 0  0.527396 0.216171 0  0.5375 0.1 0  0.534548 0.202315 0  0.561545 0.192513 0  0.5494289999999999 0.201221 0  0.570923 0.218346 0  0.412582 0.149833 0  0.489327 0.264745 0  0.502439 0.254775 0  0.462391 0.271166 0  0.496775 0.241732 0  0.5294410000000001 0.268606 0  0.482812 0.291099 0  0.46879 0.285038 0  0.452663 0.284065 0  0.51789 0.257882 0  0.53408 0.252026 0  0.560142 0.243543 0  0.545708 0.243474 0  0.547532 0.229019 0  0.55282 0.265323 0  0.398971 0.153424 0  0.400349 0.135684 0  0.410135 0.168145 0  0.428823 0.161323 0  0.415266 0.183779 0  0.329687 0.0810483 0  0.395312 0.0612217 0  0.373437 0.318952 0  0.439062 0.324017 0  0.561816 0.229354 0  0.585029 0.239287 0  0.431827 0.139854 0  0.446796 0.168929 0  0.351562 0.07598340000000001 0  0.395313 0.318944 0  0.54337 0.150762 0  0.460937 0.31948 0  0.418412 0.137529 0  0.428125 0.1 0  0.442783 0.152332 0  0.450742 0.134294 0  0.373437 0.0805201 0  0.384383 0.342558 0  0.482812 0.318952 0  0.429239 0.127457 0  0.444274 0.117405 0  0.426548 0.113815 0  0.49375 0.1 0  0.488954 0.113984 0  0.457973 0.121842 0  0.471621 0.137346 0  0.515625 0.325257 0  0.48125 0.41 0  0.417187 0.07598340000000001 0  0.496363 0.126778 0  0.479043 0.155715 0  0.439062 0.0805201 0  0.481795 0.126919 0  0.471875 0.1 0  0.489227 0.142159 0  0.515625 0.1 0  0.520062 0.147117 0  0.501244 0.161791 0  0.505431 0.112984 0  0.505344 0.14029 0  0.526563 0.119081 0  0.5181750000000001 0.131908 0  0.539868 0.136937 0  0.460937 0.108383 0  0.474242 0.114415 0  0.460937 0.0810483 0  0.487841 0.167168 0  0.526563 0.0612217 0  0.526563 0.106406 0  0.537619 0.112743 0  0.58125 0.1 0  0.559375 0.1 0  0.482812 0.08105569999999999 0  0.471883 0.0587655 0  0.570312 0.129396 0  0.548437 0.07598340000000001 0  0.504687 0.08105569999999999 0  0.49375 0.0470127 0  0.570312 0.112663 0  0.592798 0.12103 0  0.553986 0.12103 0  0.570312 0.0805201 0  0.48125 0 0  0.114787 0.2 0  0.160769 0.284765 0  0.175816 0.288361 0  0.162602 0.116048 0  0.154687 0.07598340000000001 0  0.176562 0.0805201 0  0.0598995 0.147547 0  0.307812 0.109924 0  0.291279 0.117157 0  0.278491 0.112989 0  0.285937 0.07598340000000001 0  0.307812 0.0805201 0  0.296928 0.196743 0  0.318141 0.218507 0  0.330208 0.227509 0  0.301397 0.225668 0  0.302706 0.241401 0  0.292574 0.21424 0  0.282762 0.230935 0  0.284351 0.244775 0  0.269553 0.23261 0  0.278572 0.217242 0  0.226924 0.342606 0  0.446928 0.185396 0  0.515625 0.3 0  0.504687 0.288879 0  0.515256 0.276534 0  0.529479 0.285328 0  0.58125 0.3 0  0.541969 0.272936 0  0.559375 0.3 0  0.556796 0.282529 0  0.543473 0.287206 0  0.581429 0.267774 0  0.566728 0.271171 0  0.570869 0.255585 0  0.577404 0.283865 0  0.603125 0.3 0  0.597531 0.28035 0  0.570312 0.338778 0  0.592188 0.292492 0  0.603513 0.256094 0  0.614063 0.286265 0  0.610329 0.27064 0  0.632708 0.251285 0  0.657223 0.261594 0  0.618789 0.257807 0  0.614188 0.22987 0  0.630935 0.265614 
[...]
<PointData  Vectors="v"> 
	<DataArray  type="Float64"  Name="v"  NumberOfComponents="3" format="ascii">
0.0 0.0 0.0 0.0 0.0 0.0 0.0 0.0 0.0 0.0 0.0 0.0 0.7914473220525978 -0.17693771599031147 0.0 0.8485314710707992 0.20489302839015813 0.0 0.5984239833866939 -0.028227575873753227 0.0 1.007303177053003 0.0821904962447977 0.0 0.0 0.0 0.0 0.0 0.0 0.0 0.0 0.0 0.0 0.0 0.0 0.0 0.0 0.0 0.0 0.0 0.0 0.0 0.0 0.0 0.0 0.0 0.0 0.0 0.0 0.0 0.0 0.0 0.0 0.0 0.0 0.0 0.0 0.0 0.0 0.0 0.0 0.0 0.0 0.0 0.0 0.0 0.0 0.0 0.0 0.0 0.0 0.0 0.0 0.0 0.0 0.0 0.0 0.0 0.0 0.0 0.0 0.0 0.0 0.0 0.0 0.0 0.0 0.0 0.0 0.0 0.0 0.0 0.0 0.0 0.0 0.0 0.0 0.0 0.0 0.0 0.0 0.0 0.0 0.0 0.0 0.0 0.0 0.0 0.0 0.0 0.0 0.0 0.0 0.0 0.0 0.0 0.0 0.0 0.0 0.0 0.0 0.0 0.0 0.7661520182317944 0.017374066851582975 0.0 1.1969295276952605 0.3046120894681548 0.0 0.9443158032639424 -0.011804517038169263 0.0 0.0 0.0 0.0 1.2796599125889676 -0.06333838925580254 0.0 1.3248003040810563 -0.003418796535606794 0.0 0.0 0.0 0.0 0.0 0.0 0.0 1.0 0.0 0.0 0.0 0.0 0.0 0.0 0.0 0.0 0.0 0.0 0.0 0.8424417103170543 -0.2115693380473075 0.0 1.1401007339591955 -0.2923163619264038 0.0 0.8758770555379645 0.23934835569541252 0.0 1.1912138572716489 0.2881418494265756 0.0 0.433613866068972 0.01717135536919363 0.0 0.23482910095595838 0.016819799246024936 0.0 0.1782113806622231 -0.009196631794359953 0.0 -0.04893274405955423 0.012031678932754279 0.0 -0.0485684116662444 0.16183836827708092 0.0 0.3348955250549625 -0.25904177302022996 0.0 0.8625730295259949 -0.6560866678694127 0.0 0.6413719870737582 -0.6746645441755621 0.0 1.2307805643713126 -0.5924256467701322 0.0 0.3099123156282255 0.008497419075813225 0.0 0.33994576414286926 0.29437197179365776 0.0 0.669357632626162 0.6954988004382181 0.0 1.2566699806403405 0.6075779388603681 0.0 0.3727374604119132 -0.017248260938657854 0.0 1.3011498710940608 0.13881081390517216 0.0 -0.002961022169865133 0.07767899794321166 0.0 1.2571760953540096 -0.16467918107567378 0.0 -0.01610881573347987 -0.020384509655733872 0.0 -0.036912706754905156 0.07623547743933368 0.0 1.215067450239748 -0.39290174650089765 0.0 1.1145695624528613 -0.717633359333002 0.0 0.8967516669222473 0.7998938506618799 0.0 1.301370600840364 0.4059661181960314 0.0 0.9992270335446733 0.163813848199109 0.0 -0.037407128147471845 0.1331615323202836 0.0 0.9148742092124388 -0.1574967496568577 0.0 -0.03056849117296322 -0.010418855372190448 0.0 -0.03680123102672036 0.13325517852469823 0.0 1.0952794277737252 0.7473717620149393 0.0 0.4608945464799536 0.5577897242493262 0.0 0.6284748376024235 0.02161388381660086 0.0 0.1780089085332994 0.07549806890569337 0.0 0.548626890382418 -0.027720663546088705 0.0 0.061427430137486 -0.0016235585365481128 0.0 -0.1329989353434155 0.06843126093365656 0.0 0.9843361371184729 0.2966448706672234 0.0 1.2762167585979889 0.2075255003684549 0.0 1.365510313875173 0.16190605771848518 0.0 1.2112642481744822 -0.23466278814505018 0.0 1.2855367782541038 -0.18783595558187782 0.0 1.3756892115868835 0.22505515118891659 0.0 1.2994072804033467 -0.23933077799384855 0.0 0.44110566818623476 -0.5275519958159518 0.0 0.8035646672829845 -0.119343768688547 0.0 0.6721411301436357 -0.3976394648588243 0.0 0.9119826666893243 0.6085759245965603 0.0 0.8085197635614574 0.1590713883330019 0.0 0.6974435649872698 0.43993148936817184 0.0 1.1458605172156873 -0.19936102272591472 0.0 0.29692200617613856 0.03309135382674536 0.0 0.20382330610476063 0.0038522978714570035 0.0 -0.1030329463715999 0.03294932398437439 0.0 1.3418891331063492 0.41354294257623 0.0 1.0171088045717833 0.03870629693767474 0.0 1.2845765161041809 -0.42457866180683856 0.0 0.8984389093573072 -0.050446735457203434 0.0 1.3839702271421934 0.337736233558264 0.0 1.3026892942510244 0.32193443022846613 0.0 1.317798927479099 -0.3498659456724495 0.0 1.2482694722110281 -0.3178939911794099 0.0 0.586049935186465 -0.13878665883775307 0.0 0.7972927274647688 -0.31034051779647776 0.0 1.058485585026368 0.6071323282966048 0.0 0.602145063627412 0.17212183746738677 0.0 0.8299030511488404 0.34469122199798696 0.0 1.08553782221605 -0.02761707498846055 0.0 0.8926202418021377 -0.0070078288022692925 0.0 -0.05939625172498637 -0.017354818438272777 0.0 1.3240338763408057 0.061676211582846384 0.0 0.9231063607112417 -0.2930724120278351 0.0 1.2737439260543817 -0.1067563139340865 0.0 0.5922916764840618 0.005601823007311728 0.0 0.4266091836849476 0.01280173663000414 0.0 -0.16846315476498847 -0.04760863523618037 0.0 1.0816600516137955 0.3130332097488713 0.0 0.9693810919286308 0.3875827609170424 0.0 1.1851156349349896 0.021277162973731827 0.0 0.923970832363517 -0.031950774207987566 0.0 1.3004705005406547 0.07351755054581967 0.0 1.0202315008558143 -0.30727113295398 0.0 1.085979508758874 -0.5450272528727337 0.0 0.9304419849521496 -0.3647408434680473 0.0 1.0007761025540296 -0.4113202638922642 0.0 0.9365161367328492 -0.5211032037525122 0.0 0.8663482097202667 -0.38375900112060535 0.0 1.3637087371283934 0.0946527827168643 0.0 1.290321278516756 -0.13372349439717118 0.0 0.850530302426632 -0.2152464405286615 0.0 0.877274564748998 -0.28730286550643414 0.0 0.8522461313942779 -0.27760131578123026 0.0 0.8445401712123076 -0.2331933625204213 0.0 0.8502519709387967 -0.23095289627867682 0.0 0.8930625716118891 -0.29477214465274093 0.0 1.345681471928792 0.17982819459080548 0.0 1.1982368336933513 -0.24135601110670166 0.0 1.3635205777270707 0.25325778428038587 0.0 1.2939096963416767 -0.20011767758618837 0.0 0.0 0.0 0.0 0.0 0.0 0.0 1.29803391335502 -0.2676746588787996 0.0 0.7160300455827201 -0.2464938408807984 0.0 0.8207409038709156 -0.19072050807536783 0.0 0.8723219556030736 -0.09334959923449138 0.0 0.8627073941625711 -0.1452053297638181 0.0 0.9375 0.0 0.0 0.7500000000000001 0.0 0.0 0.7351642770778144 0.2834443727432709 0.0 0.8350241982975678 0.21366327310061267 0.0 0.7499999999999999 0.0 0.0 0.8768914561979794 0.14113352192591713 0.0 0.9319630423588798 0.053231486137148266 0.0 0.8530629277578408 0.060952226670737894 0.0 -0.12261120446320396 -0.011362277544040098 0.0 -0.006646410752615599 -0.042561908686929426 0.0 1.1674504921329416 0.5406163578853935 0.0 1.0551378938298777 0.4643284070767102 0.0 0.8919711306016136 0.24880896062066635 0.0 1.337182957573558 0.0031432137818369252 0.0 1.2745996074796513 -0.1283995199694392 0.0 0.5320571236452539 -0.02869804964080769 0.0 1.3138405189269193 -0.07123397969475069 0.0 1.081972215993307 -0.0788283054947625 0.0 1.331216191354112 -0.04924221989747406 0.0 0.934205671897371 -0.19781099481917763 0.0 0.8741722781519007 -0.11846641095763394 0.0 0.16071562288566874 -0.06870973447110204 0.0 1.2598620145518353 -0.15889765609713252 0.0 0.5294723370433075 -0.11193510562552925 0.0 0.43253014458295097 -0.2555158424293785 0.0 0.5983536419776371 -0.1950141340432776 0.0 1.05868958445997 -0.2926680657110119 0.0 0.9328730552848151 -0.26234893399328557 0.0 1.229420064329391 -0.1787566182849457 0.0 0.7612547761230755 0.0017737356976059108 0.0 1.2487308898326586 -0.06782878574701692 0.0 0.05582282636832724 -0.008942728652838 0.0 1.1445128150155717 0.05806445833027433 0.0 0.8910096952180712 0.18654358874721788 0.0 0.6848308037661585 -0.1481762213919101 0.0 1.0194757954616904 -0.04876368643284199 0.0 1.0002858854820447 -0.1767225717404594 0.0 0.862624869799816 -0.16429519651240673 0.0 0.8783072683359093 -0.009274449439256593 0.0 0.4042099557161697 0.013158605821417377 0.0 0.20604391611854958 -0.011577947243057338 0.0 1.2761282246409682 0.004441564582509992 0.0 0.20363054173985118 -0.08242135521962221 0.0 1.2798964628767306 -0.02653655182603392 0.0 0.13047231401848583 -0.05551686855091583 0.0 0.5769749394601283 0.003508598891858831 0.0 -0.09099694368242818 -0.12294106537248164 0.0 0.6127874940062277 0.010798039952164492 0.0 0.8954199650254302 0.3026708535715027 0.0 0.9023570918000767 0.41811603398217 0.0 0.8969841044182438 0.2607032766811905 0.0 0.9172007454261097 0.11952022802094828 0.0 0.874813130130078 0.2223263404863756 0.0 0.9209657656061616 0.3017179507055287 0.0 0.866905184640229 0.22873900279708076 0.0 0.8085787364738521 0.1770179446408416 0.0 0.8733244700359349 0.1647418428090985 0.0 0.0 0.0 0.0 0.8477348586743776 0.17698170188312928 0.0 0.8792718961114686 0.18190897515438112 0.0 1.0397987213282027 -0.06956880779788631 0.0 1.3180653922507137 -0.12295282951899021 0.0 1.209166457675046 -0.21907828721831246 0.0 0.8658096448760141 -0.3114676558746624 0.0 1.1980936809230682 0.014580701913291222 0.0 0.7084904688612697 -0.15480276882806737 0.0 1.1024884998594737 -0.10199908236957968 0.0 1.0892645859346342 0.002947703465215274 0.0 1.288151902179703 0.035278282539447134 0.0 0.6815779862499 -0.01484912409439401 0.0 1.24830317554211 0.015380883393674941 0.0 1.116981555270991 0.022391268639434275 0.0 0.015867042862548208 -0.2560908983736574 0.0 -0.23264943539089525 -0.13618222427544094 0.0 0.9650192087064197 0.33056249986819464 0.0 1.1145136844328873 -0.28247247695200495 0.0 0.8092529289870615 -0.34441180824674084 0.0 0.0 0.0 0.0 1.1106737663533348 -0.11695122780166954 0.0 1.2754965980975492 -0.1924317738145277 0.0 1.2017225988492173 -0.031919927976169785 0.0 0.8791035643782524 -0.06195213431478106 0.0 0.4394218149051212 -0.03254774165994132 0.0 1.2738940432731996 0.04918004534038081 0.0 1.2988432835587271 0.19298158072637275 0.0 0.022799251217139653 -0.18186473333120695 0.0 -0.217713042420703 -0.0999706753547422 0.0 -0.19496576658841736 -0.18541768048968862 0.0 -0.1786964793919414 0.003548195666831302 0.0 1.1600809303213842 0.12138937904530066 0.0 0.7806166562586501 0.1812971693116106 0.0 0.7824647814863099 0.1518490142601624 0.0 0.7885383651569549 0.10845343463190463 0.0 0.621774396387371 0.10652819211251667 0.0 0.7497930170448837 -0.3181478140327438 0.0 0.29336304311928135 -0.369096000064072 0.0 0.5680649679078419 -0.3206302551723016 0.0 0.9394999872148404 -0.012058647849803598 0.0 0.0 0.0 0.0 0.6758681302188053 -0.03810137845783797 0.0 1.126932172023238 0.04884850111226615 0.0 -0.2445549014631905 -0.3435485054839534 0.0 1.0910045400570478 0.19398424605225786 0.0 0.904268284761534 0.11829046175780288 0.0 1.0120886697597133 -0.1419919100395582 0.0 0.2980874020894262 -0.14955707597746304 0.0 0.6804319632298373 -0.04942723534160536 0.0 0.3414579653943522 -0.17638004013294972 0.0 1.3114910197185643 0.13129902400818222 0.0 -0.25374874778597284 -0.2357658389503089 0.0 -0.18462863758849854 -0.26413424367211424 0.0 -0.17989224180499364 -0.3455912300973757 0.0 -0.04735957579918803 -0.2450537636545155 0.0 -0.15998351132027688 -0.4469973754566148 0.0 -0.2179275369399658 -0.4116970155959024 0.0 0.10410405777145304 -0.28075266157288004 0.0 -0.029511104069859174 -0.42375224739939893 0.0 -0.14325672775295611 -0.3988120326306752 0.0 0.18158848423310273 -0.41880333343463166 0.0 -0.024067146649172748 -0.34627974209321305 0.0 -0.031138172009995864 -0.3046105165995719 0.0 -0.1296575914802554 -0.4073378225446056 0.0 -0.048829910231283365 -0.42128376034583254 0.0 0.0 0.0 0.0 0.9481017368740302 0.21806559428562833 0.0 0.9522467775368255 0.04548556139624919 0.0 0.5113683327401415 -0.3791147216565176 0.0 0.38106327723670724 -0.08493500786723263 0.0 0.7938021440331806 -0.01537082698601814 0.0 1.1923533912051048 0.10727441530218881 0.0 1.2933898228058356 0.09673860463342446 0.0 1.0986063324659665 -0.1412208551014782 0.0 0.37678248702767814 -0.1719866549274959 0.0 -0.056627106059993514 -0.44734089582913283 0.0 0.03629721725196741 -0.14192293859687205 0.0 0.21976724617139756 -0.3871451422128373 0.0 0.08039239065260674 -0.3169142997499109 0.0 0.3949962963656728 -0.2939624825331714 0.0 0.47171881001444194 -0.11643541095470132 0.0 0.866505739147737 -0.16923649742463787 0.0 0.3368628828991378 -0.22618348308554379 0.0 0.6832453793300612 -0.24429937709934138 0.0 0.6721998721511298 -0.17231467529298486 0.0 0.8946967124630074 -0.24388023191354402 0.0 0.14323140489749245 -0.17136130562165922 0.0 0.9680325782567153 -0.08521251215035103 0.0 0.9773260543675405 -0.17292777774852436 0.0 1.079067590578402 -0.18509836726584863 0.0 1.0294284803679037 -0.224010655148722 0.0 0.16237723163753937 0.049121699960176034 0.0 0.87643795715867 -0.08409192825697777 0.0 1.099753205142563 -0.24809845587058893 0.0 1.2001235518756976 -0.26781111238568345 0.0 0.36917222183778753 0.24417049043977118 0.0 0.2928241669273374 -0.09212715004556478 0.0 1.0793791502657621 0.06355654063767192 0.0 0.0993030782752196 -0.04597295928740878 0.0 0.2102582061044702 -0.027401126414931275 0.0 0.9458712251653777 0.047144664125064226 0.0 0.30116913271277507 0.25744585617369503 0.0 0.24119822657978582 0.08573299301781757 0.0 0.6530312384687836 0.2972185099337048 0.0 0.20447566822261717 0.13265583736260358 0.0 0.36625779265410674 0.2908484030662681 0.0 0.23269308788967816 0.07173188586762871 0.0 0.4420170666273171 0.3756204453009817 0.0 0.8405913784627129 0.4429570473077165 0.0 0.5862292535558455 0.3438900227939017 0.0 0.568054829603125 0.4555225413550498 0.0 0.5727620828603467 0.4351383878326167 0.0 0.8127211636413819 0.44805965693841765 0.0 0.6426851482778944 -0.07572089603397253 0.0 1.048393352729338 0.4029710820389298 0.0 0.3387407681380846 0.29167442276083677 0.0 0.49238772914916484 -0.37294278997044483 0.0 0.9961547007776934 -0.3052772929823557 0.0 0.5035819800887786 -0.10594002362335841 0.0 1.3144284163894688 0.16937756541951213 0.0 1.2614958928267626 0.23443677375672695 0.0 0.6524541294788615 0.06063749295305669 0.0 0.03669447773388132 -0.30487542438372517 0.0 -0.052794406813095086 -0.3176763684715987 0.0 0.051738329739955666 -0.19942105721948405 0.0 0.4095148974607132 -0.03177753016479041 0.0 0.04176656323055712 -0.16179550311821658 0.0 0.17337309865009362 -0.01767623179910413 0.0 0.9667551122057766 0.08425176688662624 0.0 0.38723213639937465 -0.0003699500102088946 0.0 0.5927459495950187 0.11054077766735075 0.0 0.7699729604864671 0.5198154147260899 0.0 0.4352678103838504 0.37435723886279754 0.0 0.6090731279129502 0.44894422118175165 0.0 0.4530905318123365 0.39737165209014524 0.0 0.5641238226793976 0.44500379610110485 0.0 0.849666357127164 0.18217029594086565 0.0 0.678716206172523 0.46954207205542714 0.0 0.7197953246282343 0.4018198374372623 0.0 0.6947326000671695 0.4429001966499237 0.0 0.5787327480925882 0.45735566880593564 0.0 0.8272674885436249 0.06153266598903854 0.0 0.4126494937147775 0.07731249648228447 0.0 0.30886087816374475 0.1749956876431119 0.0 0.5970605668402091 -0.028296029425583385 0.0 0.24466317395775053 0.1910943343604337 0.0 0.5886132737078661 0.22159615758910842 0.0 0.878482914654908 0.0732463977836752 0.0 0.8143533590984743 0.03246976455888711 0.0 0.8367447262281213 -0.024886571177276683 0.0 0.3925044948114835 0.24110929736601144 0.0 0.42939986890883175 0.3239891172785431 0.0 0.5402934268904329 0.39509783754756866 0.0 0.468748280604204 0.39280798004449613 0.0 0.5235534750222769 0.4327867272917278 0.0 0.7029384607287645 0.23652435884918752 0.0 0.6563724306263763 -0.04557320340802928 0.0 1.011034315319985 0.09177824105309666 0.0 0.4716269783157873 -0.09454806130341563 0.0 0.7466940692393351 0.10508351588413684 0.0 0.22167108259392926 -0.19153773199842497 0.0 1.2093071878266923 0.026302293376787984 0.0 1.030465065173457 0.12611538914161896 0.0 1.0509185270591344 -0.1387678109652807 0.0 0.9376389643190135 -0.02538882892309327 0.0 0.5386503720197546 0.45071074078979034 0.0 0.6926293341513753 0.30797315493755273 0.0 1.1262005679121445 0.26463272427666396 0.0 0.7414427044135554 0.2189683367101644 0.0 1.178700100150918 0.06136873620119396 0.0 0.9973552047310779 -0.11799034700105068 0.0 0.8983549741963477 0.34982294590292135 0.0 0.9509427038787824 0.01725068196800272 0.0 1.0848617629583275 0.1897867580800243 0.0 1.2667139524738862 0.2599244045068189 0.0 0.9916289863925271 0.28431568022841336 0.0 1.2301105851116283 0.3936593089529516 0.0 1.2090612618238663 0.102846499250575 0.0 0.9008290655695457 -0.09362259331627121 0.0 0.9783638490099612 0.04754180341796151 0.0 1.258907813637595 0.2883829641567218 0.0 1.2810931277845596 0.3550788648626647 0.0 1.3156107746643642 0.2888940233983523 0.0 1.0209884098050492 0.3034803828880709 0.0 1.1068450877227107 0.373418078752714 0.0 1.2519088170368007 0.3992103282657988 0.0 1.1915365809898268 0.46734436194347284 0.0 1.0151415599528557 0.03692343314070166 0.0 0.0 0.0 0.0 1.1135665387316551 0.19264085852310217 0.0 1.1015762815052375 0.41652616605377807 0.0 1.0568070321114518 0.5023387703289913 0.0 1.1004376446561146 0.23947355906890358 0.0 1.1666012005096902 0.43860765122295453 0.0 1.1150791183625834 0.3188257791203948 0.0 1.123302551200713 0.491405403053185 0.0 0.9297375698211992 0.24992656956679876 0.0 0.9960573018971037 0.43663495433961097 0.0 0.9947685872617567 0.5338673512050335 0.0 1.0221607022166936 0.33698683751986086 0.0 1.0624835842295564 0.45884092498866746 0.0 0.9536062203674763 0.2948937061757079 0.0 1.0097008801421985 0.3815703028503576 0.0 0.9186487709114254 0.31404703386430116 0.0 1.2041996521524645 0.35705023460778085 0.0 1.1663018785412502 0.3851350156985326 0.0 1.0301245665424437 0.25740752971787484 0.0 0.9512129912867168 0.5234229852348267 0.0 0.608539461951431 0.09541312164384283 0.0 0.9150328965948934 0.24560550992201632 0.0 0.8903400077410967 0.2271165806469994 0.0 0.7234977977272786 0.020669427802921803 0.0 0.7761007565033008 0.10237767307389171 0.0 0.942331139047905 0.2445663457850525 0.0 0.7717891224201529 0.15389558772679487 0.0 0.8012687193975836 0.1502767205318383 0.0 0.6782174147503167 0.0733420647842725 0.0 0.8626717439653834 0.20802919799345343 0.0 0.5243321405383435 0.09427975412996088 0.0 0.7799081100166809 0.09577556449118875 0.0 0.7250079481543172 0.034382754890564714 0.0 0.8510492392951337 0.19120081908398434 0.0 0.6686693711351646 0.020412206655048278 0.0 0.0 0.0 0.0 0.6503749383085861 0.01415347147980746 0.0 1.1141678351529802 0.40664839722293916 0.0 1.2109145896208677 0.37456153511230167 0.0 1.0851256388643975 -0.3910719087994188 0.0 0.8463371234284649 -0.19843462386362365 0.0 0.9561541611067852 -0.21644154339748695 0.0 0.892169570424146 -0.07158036042588338 0.0 1.2399537404864456 -0.009417998685589579 0.0 1.14585670428095 -0.015141383574512954 0.0 1.2302374056542629 -0.04142370413712184 0.0 1.1522773506184398 -0.028027483201563688 0.0 1.1951157592370425 -0.002195650124103512 0.0 -0.1840562788208543 0.01094371501832083 0.0 -0.09791140187581392 -0.05556225424700437 0.0 0.041289826098299155 -0.1581075685347713 0.0 -0.013683733573033744 0.04275718202091742 0.0 0.24692437607985437 0.004300279942771177 0.0 -0.11302220002923519 0.07360926544134945 0.0 0.02801568969293652 0.11628865318458186 0.0 0.23900111626219628 0.058023605542867826 0.0 0.011970224240183616 0.1442647581098855 0.0 -0.0742038073205909 0.12608678655848712 0.0 0.977229511408945 0.08233511446989115 0.0 0.4537187504461079 0.0954388431336227 0.0 1.009884894653299 0.08930822316825775 0.0 0.8579116365382103 0.11256787784084343 0.0 0.6681632060747746 0.1542120588770493 0.0 0.8802358151584778 0.1343839981515649 0.0 1.2181827528759195 -0.10143121823237389 0.0 0.7416561068642699 0.19641268130503212 0.0 1.164432915403059 -0.007492209900535605 0.0 0.9965723674967605 0.0931564562891582 0.0 0.978883615176376 0.10388393863527966 0.0 0.9956747792144113 0.06924795782527451 0.0 0.9142678852058882 0.13627323426047677 0.0 0.7341936950088169 0.2600110405906799 0.0 1.1451519281674745 -0.018851020162315883 0.0 1.2381317388257256 -0.19726384975071376 0.0 1.2291765319183894 -0.1347341655623416 0.0 0.9498457472490222 -0.07338688379348283 0.0 1.2460450185765104 -0.147238372415111 0.0 1.0499556610465168 -0.03247911068274347 0.0 1.2737786307485714 -0.25243151346273335 0.0 1.2283324163828868 -0.19051260053703817 0.0 1.1920196720885077 -0.29862105402751155 0.0 1.2440251692522608 -0.43034431306880766 0.0 1.1754912612478305 -0.2011333381855622 0.0 0.8591390701294799 0.06218706264242738 0.0 1.26534996621847 -0.32424592612286035 0.0 1.047622939393227 -0.12178656540971884 0.0 1.029509081522404 -0.2667155637805911 0.0 1.0052537473973018 -0.2573624417466458 0.0 0.8367834106162851 -0.13799799034213614 0.0 1.266361619748163 -0.3249466531039835 0.0 1.2584937395683817 -0.37961973