<?xml version="1.0"?>
<VTKFile type="UnstructuredGrid"  version="0.1"  >
<UnstructuredGrid>
<Piece  NumberOfPoints="1289" NumberOfCells="2413">
<Points>
<DataArray  type="Float64"  NumberOfComponents="3"  format="ascii">0 0 0  0 0.41 0  2.2 0.41 0  2.2 0 0  0.1 0.1 0  0.1 0.3 0  0.8 0.3 0  0.8 0.1 0  0.25 0.2 0  0.248976 0.210065 0  0.245948 0.219718 0  0.241038 0.228563 0  0.234448 0.23624 0  0.226448 0.242432 0  0.217365 0.246888 0  0.207571 0.249423 0  0.197468 0.249936 0  0.187467 0.248404 0  0.17798 0.24489 0  0.169395 0.239539 0  0.162062 0.232569 0  0.156283 0.224265 0  0.152293 0.214968 0  0.150257 0.205058 0  0.150257 0.194942 0  0.152293 0.185032 0  0.156283 0.175735 0  0.162062 0.167431 0  0.169395 0.160461 0  0.17798 0.15511 0  0.187467 0.151596 0  0.197468 0.150064 0  0.207571 0.150577 0  0.217365 0.153112 0  0.226448 0.157568 0  0.234448 0.16376 0  0.241038 0.171437 0  0.245948 0.180282 0  0.248976 0.189935 0  1.1 0 0  1.1 0.41 0  0.1 0.2 0  0.45 0.1 0  0.45 0.3 0  0.55 0 0  0.275 0.1 0  0.275 0.3 0  0.275 0 0  0.55 0.41 0  0 0.205 0  0.825 0 0  0.825 0.41 0  0.275 0.41 0  0.1 0.15 0  0.1875 0.1 0  0.1 0.25 0  0.1875 0.3 0  0.132322 0.2 0  0.241426 0.253518 0  0.241426 0.146482 0  0.264574 0.17974 0  0.264574 0.22026 0  0.138434 0.187348 0  0.153372 0.150948 0  0.148413 0.164094 0  0.176495 0.136535 0  0.22768 0.143571 0  0.138434 0.212652 0  0.148413 0.235906 0  0.176495 0.263465 0  0.22768 0.256429 0  0.23125 0.3 0  0.24769 0.24094 0  0.23125 0.1 0  0.24769 0.15906 0  0.26253 0.193641 0  0.190482 0.137872 0  0.166753 0.146661 0  0.157737 0.244461 0  0.190482 0.262128 0  0.203107 0.261264 0  0.253635 0.22977 0  0.203107 0.138736 0  0.253635 0.17023 0  0.261028 0.206206 0  0.167707 0.251809 0  0.143629 0.224191 0  0.215302 0.2591 0  0.270465 0.245894 0  0.215302 0.1409 0  0.270465 0.154106 0  0.284052 0.202587 0  0.14375 0.3 0  0.209375 0.3 0  0.225966 0.278501 0  0.209375 0.1 0  0.225966 0.121499 0  0.211613 0.273759 0  0.211613 0.126241 0  0.143629 0.175809 0  0.1 0.175 0  0.133484 0.164832 0  0.144491 0.249539 0  0.1 0.225 0  0.133484 0.235168 0  0.3625 0.3 0  0.25691 0.253381 0  0.25691 0.146619 0  0.277205 0.188698 0  0.184724 0.275712 0  0.237372 0.268285 0  0.184724 0.124288 0  0.237372 0.131715 0  0.197578 0.273149 0  0.193656 0.286994 0  0.197578 0.126851 0  0.193656 0.113006 0  0.122953 0.187671 0  0.118362 0.153758 0  0.155372 0.258107 0  0.122953 0.212329 0  0.118362 0.246242 0  0.276394 0.27264 0  0.276394 0.12736 0  0.280965 0.170013 0  0.253125 0.3 0  0.14375 0.1 0  0.253125 0.1 0  0.269489 0.26014 0  0.269489 0.13986 0  0.303639 0.184297 0  0.165625 0.3 0  0.134742 0.273113 0  0.257831 0.274737 0  0.255279 0.128499 0  0.3625 0.1 0  0.165625 0.1 0  0.162031 0.132368 0  0.134955 0.126405 0  0.149334 0.125568 0  0.142936 0.139597 0  0.12695 0.140259 0  0.242514 0.285501 0  0.242514 0.114499 0  0.1 0.125 0  0.117483 0.12555 0  0.11154 0.139776 0  0.121875 0.1 0  0.109143 0.1125 0  0.126805 0.114 0  0.220313 0.29129 0  0.351562 0.287369 0  0.207222 0.2866 0  0.220312 0.10871 0  0.1375 0 0  0.20625 0 0  0.207222 0.1134 0  0.11722 0.17118 0  0.1 0.1625 0  0.0778409 0.16875 0  0.0862762 0.15625 0  0 0.15375 0  0 0.1025 0  0.11722 0.22882 0  0.1 0.2375 0  0 0.3075 0  0.0862762 0.23125 0  0.0598995 0.222547 0  0.0860223 0.2125 0  0.289584 0.181469 0  0.300267 0.16446 0  0.163832 0.269071 0  0.149597 0.273325 0  0.1 0.275 0  0.268498 0.285953 0  0.31875 0.3 0  0.294154 0.254672 0  0.296875 0.3 0  0.293558 0.271845 0  0.285095 0.286799 0  0.324298 0.264316 0  0.307866 0.263745 0  0.317093 0.234901 0  0.315485 0.281219 0  0.316547 0.250625 0  0.344693 0.243731 0  0.331592 0.251147 0  0.35129 0.270663 0  0.338689 0.263683 0  0.340625 0.3 0  0.249849 0.264383 0  0.265097 0.11422 0  0.284688 0.156136 0  0.242188 0.324017 0  0.0856613 0.2625 0  0.132812 0.0612217 0  0.264062 0.0612217 0  0.198437 0.07598340000000001 0  0.0860223 0.1375 0  0.0794526 0.191089 0  0.285228 0.140397 0  0.298655 0.148737 0  0.31875 0.1 0  0.327335 0.15374 0  0.296875 0.1 0  0.312289 0.155283 0  0.313348 0.135607 0  0.321802 0.173916 0  0.298433 0.134116 0  0.112124 0.2625 0  0.127526 0.259083 0  0.121875 0.3 0  0.0682687 0.241503 0  0.1 0.2875 0  0.117762 0.28125 0  0.107813 0.3 0  0.103906 0.313849 0  0.0778409 0.28125 0  0.1375 0.41 0  0.0862762 0.29375 0  0.08886860000000001 0.24375 0  0.307812 0.338778 0  0.307812 0.292227 0  0.33216 0.279164 0  0.387888 0.266414 0  0.264063 0.31948 0  0.110937 0.07598340000000001 0  0.242188 0.07598340000000001 0  0.319914 0.11839 0  0.340625 0.1 0  0.334448 0.133793 0  0.329687 0.108539 0  0.346259 0.118491 0  0.360334 0.173636 0  0.327539 0.205033 0  0.132812 0.288712 0  0.362436 0.278836 0  0.368105 0.259418 0  0.4125 0.41 0  0.329687 0.324017 0  0.329687 0.292306 0  0.285938 0.318952 0  0.417187 0.338778 0  0.324481 0.14148 0  0.351562 0.106771 0  0.40625 0.1 0  0.341028 0.168342 0  0.319221 0.190479 0  0.335292 0.184501 0  0.305563 0.20794 0  0.220313 0.31948 0  0.132812 0.332772 0  0.0865876 0.311259 0  0.0598995 0.302453 0  0.0906541 0.343255 0  0.353543 0.255837 0  0.36574 0.237633 0  0.405007 0.254279 0  0.275795 0.352123 0  0.4125 0 0  0.35493 0.137394 0  0.366563 0.120618 0  0.35917 0.205246 0  0.198438 0.318952 0  0.0626109 0.263892 0  0.40625 0.3 0  0.354809 0.155936 0  0.386512 0.146872 0  0.373101 0.159939 0  0.384375 0.1 0  0.343394 0.19929 0  0.350682 0.185683 0  0.368101 0.189748 0  0.344016 0.221511 0  0.391108 0.213329 0  0.376279 0.204783 0  0.398843 0.182768 0  0.375804 0.222746 0  0.390665 0.196958 0  0.394004 0.23518 0  0.359883 0.222828 0  0.419908 0.204359 0  0.404243 0.204783 0  0.412615 0.224526 0  0.20625 0.41 0  0.165625 0.325257 0  0.0347982 0.244954 0  0.379558 0.247154 0  0.34165 0.147603 0  0.372264 0.136992 0  0.388988 0.121989 0  0.373437 0.108554 0  0.351562 0.31948 0  0.391367 0.16527 0  0.399572 0.223324 0  0.452011 0.227371 0  0.40877 0.239392 0  0.431491 0.237337 0  0.421224 0.250459 0  0.449619 0.262098 0  0.418865 0.276779 0  0.437063 0.252274 0  0.415673 0.263227 0  0.430988 0.266772 0  0.402767 0.273419 0  0.452967 0.244883 0  0.428125 0.3 0  0.408502 0.286186 0  0.384375 0.3 0  0.392267 0.285807 0  0.465927 0.219339 0  0.43489 0.283846 0  0.376424 0.286289 0  0.625 0.3 0  0.473533 0.205186 0  0.461713 0.255517 0  0.5375 0.3 0  0.465725 0.235405 0  0.44631 0.201425 0  0.471875 0.3 0  0.494307 0.227729 0  0.459448 0.206736 0  0.462294 0.180792 0  0.478933 0.227536 0  0.486793 0.21381 0  0.486322 0.251373 0  0.50065 0.215318 0  0.54005 0.175389 0  0.474633 0.189893 0  0.512916 0.208697 0  0.49531 0.199967 0  0.475889 0.175275 0  0.625 0.1 0  0.459311 0.153933 0  0.513645 0.242704 0  0.392892 0.248539 0  0.374815 0.271913 0  0.365974 0.14871 0  0.395312 0.109184 0  0.417061 0.123981 0  0.483196 0.277003 0  0.381967 0.179632 0  0.429898 0.219374 0  0.433473 0.206165 0  0.43149 0.181038 0  0.444208 0.215487 0  0.472985 0.247309 0  0.49375 0.3 0  0.475579 0.262714 0  0.49916 0.274293 0  0.501175 0.184809 0  0.514164 0.225681 0  0.543648 0.214977 0  0.5341630000000001 0.23481 0  0.527396 0.216171 0  0.5375 0.1 0  0.534548 0.202315 0  0.561545 0.192513 0  0.5494289999999999 0.201221 0  0.570923 0.218346 0  0.412582 0.149833 0  0.489327 0.264745 0  0.502439 0.254775 0  0.462391 0.271166 0  0.496775 0.241732 0  0.5294410000000001 0.268606 0  0.482812 0.291099 0  0.46879 0.285038 0  0.452663 0.284065 0  0.51789 0.257882 0  0.53408 0.252026 0  0.560142 0.243543 0  0.545708 0.243474 0  0.547532 0.229019 0  0.55282 0.265323 0  0.398971 0.153424 0  0.400349 0.135684 0  0.410135 0.168145 0  0.428823 0.161323 0  0.415266 0.183779 0  0.329687 0.0810483 0  0.395312 0.0612217 0  0.373437 0.318952 0  0.439062 0.324017 0  0.561816 0.229354 0  0.585029 0.239287 0  0.431827 0.139854 0  0.446796 0.168929 0  0.351562 0.07598340000000001 0  0.395313 0.318944 0  0.54337 0.150762 0  0.460937 0.31948 0  0.418412 0.137529 0  0.428125 0.1 0  0.442783 0.152332 0  0.450742 0.134294 0  0.373437 0.0805201 0  0.384383 0.342558 0  0.482812 0.318952 0  0.429239 0.127457 0  0.444274 0.117405 0  0.426548 0.113815 0  0.49375 0.1 0  0.488954 0.113984 0  0.457973 0.121842 0  0.471621 0.137346 0  0.515625 0.325257 0  0.48125 0.41 0  0.417187 0.07598340000000001 0  0.496363 0.126778 0  0.479043 0.155715 0  0.439062 0.0805201 0  0.481795 0.126919 0  0.471875 0.1 0  0.489227 0.142159 0  0.515625 0.1 0  0.520062 0.147117 0  0.501244 0.161791 0  0.505431 0.112984 0  0.505344 0.14029 0  0.526563 0.119081 0  0.5181750000000001 0.131908 0  0.539868 0.136937 0  0.460937 0.108383 0  0.474242 0.114415 0  0.460937 0.0810483 0  0.487841 0.167168 0  0.526563 0.0612217 0  0.526563 0.106406 0  0.537619 0.112743 0  0.58125 0.1 0  0.559375 0.1 0  0.482812 0.08105569999999999 0  0.471883 0.0587655 0  0.570312 0.129396 0  0.548437 0.07598340000000001 0  0.504687 0.08105569999999999 0  0.49375 0.0470127 0  0.570312 0.112663 0  0.592798 0.12103 0  0.553986 0.12103 0  0.570312 0.0805201 0  0.48125 0 0  0.114787 0.2 0  0.160769 0.284765 0  0.175816 0.288361 0  0.162602 0.116048 0  0.154687 0.07598340000000001 0  0.176562 0.0805201 0  0.0598995 0.147547 0  0.307812 0.109924 0  0.291279 0.117157 0  0.278491 0.112989 0  0.285937 0.07598340000000001 0  0.307812 0.0805201 0  0.296928 0.196743 0  0.318141 0.218507 0  0.330208 0.227509 0  0.301397 0.225668 0  0.302706 0.241401 0  0.292574 0.21424 0  0.282762 0.230935 0  0.284351 0.244775 0  0.269553 0.23261 0  0.278572 0.217242 0  0.226924 0.342606 0  0.446928 0.185396 0  0.515625 0.3 0  0.504687 0.288879 0  0.515256 0.276534 0  0.529479 0.285328 0  0.58125 0.3 0  0.541969 0.272936 0  0.559375 0.3 0  0.556796 0.282529 0  0.543473 0.287206 0  0.581429 0.267774 0  0.566728 0.271171 0  0.570869 0.255585 0  0.577404 0.283865 0  0.603125 0.3 0  0.597531 0.28035 0  0.570312 0.338778 0  0.592188 0.292492 0  0.603513 0.256094 0  0.614063 0.286265 0  0.610329 0.27064 0  0.632708 0.251285 0  0.657223 0.261594 0  0.618789 0.257807 0  0.614188 0.22987 0  0.630935 0.265614 
[...]
<PointData  Vectors="v"> 
	<DataArray  type="Float64"  Name="v"  NumberOfComponents="3" format="ascii">
0.0 0.0 0.0 0.0 0.0 0.0 0.0 0.0 0.0 0.0 0.0 0.0 0.795238600480638 -0.17980123566361939 0.0 0.8447186791538734 0.2016889154681561 0.0 0.8221680789024615 -0.14146962018757114 0.0 0.5740500580008481 -0.16132111548891376 0.0 0.0 0.0 0.0 0.0 0.0 0.0 0.0 0.0 0.0 0.0 0.0 0.0 0.0 0.0 0.0 0.0 0.0 0.0 0.0 0.0 0.0 0.0 0.0 0.0 0.0 0.0 0.0 0.0 0.0 0.0 0.0 0.0 0.0 0.0 0.0 0.0 0.0 0.0 0.0 0.0 0.0 0.0 0.0 0.0 0.0 0.0 0.0 0.0 0.0 0.0 0.0 0.0 0.0 0.0 0.0 0.0 0.0 0.0 0.0 0.0 0.0 0.0 0.0 0.0 0.0 0.0 0.0 0.0 0.0 0.0 0.0 0.0 0.0 0.0 0.0 0.0 0.0 0.0 0.0 0.0 0.0 0.0 0.0 0.0 0.0 0.0 0.0 0.0 0.0 0.0 0.0 0.0 0.0 0.0 0.0 0.0 0.0 0.0 0.0 0.7662778601664558 0.010280241070881562 0.0 1.2112120484741702 0.07686145442827715 0.0 0.9735890196754398 -0.2422020055695543 0.0 0.0 0.0 0.0 1.2577904099250374 -0.010841170864682004 0.0 1.3426974272241257 0.04955426953811127 0.0 0.0 0.0 0.0 0.0 0.0 0.0 1.0 0.0 0.0 0.0 0.0 0.0 0.0 0.0 0.0 0.0 0.0 0.0 0.8454370408290303 -0.21753472195439824 0.0 1.1472563263526543 -0.27526886290125413 0.0 0.8727845039538441 0.23333944394425946 0.0 1.1841767277518294 0.30470568076001087 0.0 0.433730325756234 0.013870964415207356 0.0 0.17944093230722016 0.027974522247836222 0.0 0.2356246984918318 0.0033812053312807584 0.0 -0.06451913207176935 0.03262456821011529 0.0 -0.03477837326306483 0.17298197037272128 0.0 0.3359907322529535 -0.2621834320676259 0.0 0.8685533558028299 -0.6554238387565375 0.0 0.6457178336968238 -0.6776522634704255 0.0 1.2448258738232931 -0.5873024948253687 0.0 0.3712457841907686 0.02542126482681495 0.0 0.33893171747514617 0.29121475872653824 0.0 0.6652331764613607 0.6930117529138989 0.0 1.2436875920990929 0.6126834501353834 0.0 0.31235845893856307 -0.0011228914712310865 0.0 1.3011465265423556 0.1726769250864584 0.0 -0.020812225558641137 0.06095571324002004 0.0 1.2570165356919003 -0.129847439734308 0.0 0.0028548196329160544 -0.03735655639159911 0.0 -0.04130519119776217 0.08123799765872752 0.0 1.2526934261028975 -0.39295538101651734 0.0 1.1286001841810986 -0.7194185470717406 0.0 0.8888406288360219 0.7966488662297433 0.0 1.26494860169911 0.4060428541491463 0.0 0.943547173199595 0.1673565663465222 0.0 -0.03297356250118952 0.1032373203689577 0.0 0.9717964608046323 -0.15387328407253822 0.0 -0.03727917334094571 -0.03640556136574507 0.0 -0.029635953602356175 0.12711692132403118 0.0 1.0817821685637645 0.7437103106499325 0.0 0.45815769103574544 0.5544090064411206 0.0 0.5661397238915057 0.03099748095234044 0.0 0.11629984762777787 0.10516710827180638 0.0 0.6123200790854112 -0.017836326550810296 0.0 0.1246072919160045 0.028487246291198247 0.0 -0.11926811694589383 0.17990326205371815 0.0 0.977968105088308 0.30105045106100087 0.0 1.2703952617352796 0.23327586574824613 0.0 1.336598602816107 0.19243801188761964 0.0 1.216071485574198 -0.20880926183847495 0.0 1.3160184823604784 -0.15681890954659114 0.0 1.3427367968049693 0.24829065049658683 0.0 1.3335398527216349 -0.21594961370025206 0.0 0.4439668269527335 -0.5311912089677715 0.0 0.805053045436895 -0.12632348843292956 0.0 0.6754709494911255 -0.3998234397754033 0.0 0.905552181206844 0.6071365896709503 0.0 0.8070049676189828 0.15196671355923627 0.0 0.6939125677425936 0.4370327254198721 0.0 1.3007994381564572 -0.22355680406810488 0.0 0.21415380692256236 0.04277365712354822 0.0 0.2920699794201422 0.01819624948047866 0.0 -0.11356752337945775 0.11347501910187872 0.0 1.3265921856084122 0.42820062818089516 0.0 0.9388212996494318 0.06163608122735413 0.0 1.2996443613635285 -0.4104611907387699 0.0 0.9783974843444386 -0.02566452381178734 0.0 1.3621969006572126 0.35691309828213746 0.0 1.291622441075664 0.34126324465235836 0.0 1.340578464601593 -0.33057328213456283 0.0 1.2595625909924533 -0.29794596431251064 0.0 0.5875842187372654 -0.1432766504853192 0.0 0.8007297561171834 -0.3145192757594855 0.0 1.0497102719020306 0.6087414157714283 0.0 0.6005978719448353 0.1675706125210148 0.0 0.8264353842909585 0.34030836411944865 0.0 0.9837456713843615 0.031603882364927914 0.0 0.9930959158460668 0.05106524285695214 0.0 -0.07723246682597976 0.07436429523751377 0.0 1.3305924786359307 0.10422023840289746 0.0 0.929288283791648 -0.2886962692156698 0.0 1.26465867321574 -0.062414289133242984 0.0 0.47376492561266886 0.0408252920616607 0.0 0.5495652749784673 0.05304281612320599 0.0 -0.19483446179403524 0.1844599839989511 0.0 1.0746571307527597 0.32313099862170414 0.0 0.9630215357663731 0.3878996737208376 0.0 1.1111715118854275 0.059424703458310614 0.0 1.0105074030415135 0.0015338379422293513 0.0 1.1390710994523892 0.05085516000998637 0.0 1.0269978700597662 -0.29700748977839747 0.0 1.0958251753282267 -0.5408745667615282 0.0 0.9370554977567292 -0.3639001122545738 0.0 1.0088186097420018 -0.4073835199495402 0.0 0.9433408724265745 -0.5214948784854316 0.0 0.8714541771637919 -0.38608977840123404 0.0 1.3478498964329086 0.1352607482005899 0.0 1.3072633955777173 -0.09250519308741685 0.0 0.8541897087326736 -0.21982015789487427 0.0 0.8821671012403423 -0.28948592142695123 0.0 0.8563975188472556 -0.28162249337216827 0.0 0.8496550923219265 -0.23283308800108288 0.0 0.8547909610999482 -0.23336121093392376 0.0 0.8985869692607836 -0.2945418657908654 0.0 1.3385577176393364 0.21175786840134833 0.0 1.350458280654363 -0.2045966842217346 0.0 1.3515754317068491 0.27907116261068843 0.0 1.3010052805831922 -0.16693417605570526 0.0 0.0 0.0 0.0 0.0 0.0 0.0 1.3096398517157113 -0.24087957750866953 0.0 0.7181234141452457 -0.2514951733432079 0.0 0.8230894494885088 -0.1972332498371545 0.0 0.8732779452120308 -0.10150967469927971 0.0 0.8647825875029646 -0.15260388145458662 0.0 0.9375 0.0 0.0 0.7500000000000001 0.0 0.0 0.7331054758694473 0.27822777638840773 0.0 0.8326758992824891 0.2070332231181086 0.0 0.7499999999999999 0.0 0.0 0.8754843781371344 0.13328065486508375 0.0 0.9313536985908258 0.04502410265012014 0.0 0.8523974171052564 0.05273233132439469 0.0 -0.14829289249402783 0.13501865967567048 0.0 -0.034955886512030784 0.14004737280212518 0.0 1.1572384669184272 0.5458038753051443 0.0 1.0472107165773428 0.4669637455271593 0.0 0.888460823770267 0.24385159061854217 0.0 1.314699322662557 0.05801511176740803 0.0 1.351033310052035 -0.0739125969735626 0.0 0.41767478376770184 0.08144608786731754 0.0 1.3552111782098875 -0.01003762104805832 0.0 0.9770687183968176 0.0094729265681022 0.0 1.3161942294304037 0.020399318354786353 0.0 0.8714010155248338 -0.026896225340742867 0.0 0.7539381126143005 0.022649699704837385 0.0 0.2124051410269335 0.17654073322715463 0.0 1.2648388948955787 -0.05611439505353959 0.0 0.474728976594418 0.08823322742562864 0.0 0.5222198024373589 0.02522280238055615 0.0 0.587239503443348 0.04139312896805663 0.0 1.1678945870228963 -0.1832160532826444 0.0 0.9402810679758911 -0.08469276394707775 0.0 1.3500272940459186 -0.14879216075431795 0.0 0.6668157312530385 0.024796616519076584 0.0 1.2733575366465117 -0.014330906647413025 0.0 0.10106281875492032 0.08234217494607995 0.0 1.1569142786124982 0.08843390730889365 0.0 0.8884346346580324 0.17989416053514212 0.0 0.6899030159344747 -0.1456155161289838 0.0 0.9907831801624486 -0.02209584972295 0.0 1.0003024688007613 -0.15985381759021222 0.0 0.8652247325495775 -0.17053965738058086 0.0 0.8784810079807965 -0.017681619800328587 0.0 0.5350801788494681 0.08653067896527328 0.0 0.2779167632848359 0.1239680943173925 0.0 1.1971530762049774 0.058054205267957515 0.0 0.13295198352947799 0.1822795750956194 0.0 1.239117163733933 0.03413761492248536 0.0 0.11163232993619711 0.1649662706569428 0.0 0.6681022180836433 0.1402419002574756 0.0 -0.1750576192768907 0.19816673296516013 0.0 0.7384586824359516 0.11824157131098355 0.0 0.8910021335314273 0.2987526946526214 0.0 0.8973605752809306 0.4154808805855819 0.0 0.8922331304991038 0.2607041898332848 0.0 0.9159180030853709 0.11146100318435623 0.0 0.8712483734129146 0.2187188606908762 0.0 0.9159996989406664 0.29967397993277595 0.0 0.8625881032168797 0.22644705047255753 0.0 0.8045170198054127 0.17553221760822757 0.0 0.870616587488829 0.15873242814047142 0.0 0.0 0.0 0.0 0.8447901917676399 0.1722255969808258 0.0 0.8771539719321335 0.17474168882787522 0.0 1.093811774562328 -0.04938798114729853 0.0 1.3593786699922772 -0.042285029642332085 0.0 1.2597339867065112 -0.11276149732645543 0.0 1.1754361909715638 -0.37761153019569355 0.0 1.2207962451396235 0.051616381131466084 0.0 0.7124656422578659 -0.1551584850279001 0.0 1.0883093097211016 -0.07309956180031589 0.0 1.0796756065668123 0.10506602704970787 0.0 1.167156672343509 0.062850672743343 0.0 0.6780049176493528 0.1463116124044066 0.0 1.1618596094937956 0.08190899483728976 0.0 1.006230733852156 0.09831141262734613 0.0 -0.21093721761150092 0.13459845941256676 0.0 -0.1670340484045247 0.2351471420963009 0.0 0.9589648408210082 0.3318637504913881 0.0 1.3017000881299494 -0.25800247568062074 0.0 1.0113106836648933 -0.2391258321604234 0.0 0.0 0.0 0.0 1.1925170506805753 -0.10365824104648251 0.0 1.3687524763945034 -0.12632404730868163 0.0 1.2395303895109286 0.007940389055328971 0.0 0.8987014348577825 -0.167690523608629 0.0 0.46537490596793224 0.16127744215177955 0.0 1.128760414675631 0.06508687810617153 0.0 1.1496408805384322 0.02598708978794919 0.0 -0.13655659086223482 0.18715912994437223 0.0 -0.23206034898814093 0.22591734169360697 0.0 -0.25004532721328454 0.2163948710927149 0.0 -0.13383955657983956 0.2400244093904068 0.0 1.1624641147075556 0.14777185600320084 0.0 0.7765352762099608 0.18389500314166246 0.0 0.779441809087317 0.14829494423064718 0.0 0.7869310846172772 0.10301942428196488 0.0 0.6185167180878481 0.10458828942931338 0.0 0.8458748856289002 -0.1210417413379663 0.0 0.5293071133566088 -0.10148366245603578 0.0 1.0119351782089154 -0.45760190895020947 0.0 0.9721314336925889 0.007420114455481831 0.0 0.0 0.0 0.0 0.5253301576731767 0.12674297839838178 0.0 0.9265538595860534 0.07484183262998441 0.0 -0.10231434886337899 0.09500901142303508 0.0 1.089716818355409 0.21238139684649465 0.0 0.9027282441484118 0.11121044767285697 0.0 1.1502805345514335 -0.29876107269201735 0.0 0.057134475302599394 0.14869884053727112 0.0 0.2597630163995125 0.01842911525128974 0.0 -0.018282571743947797 0.07873887494036959 0.0 1.1373833058949352 0.03426059830238165 0.0 -0.20313748992291572 0.19926073216845666 0.0 -0.2660894529343661 0.17987077562889825 0.0 -0.24391036670191477 0.07751569444573106 0.0 0.10332001986277327 0.142769116268387 0.0 0.17710525759477747 -0.21784652853229264 0.0 -0.043298753335575035 -0.03894107305600303 0.0 -0.17755826381581502 -0.15768275685049185 0.0 0.27677238355666345 -0.11789861534322796 0.0 -0.08811928598009958 -0.13829712621540208 0.0 0.6306039654582936 -0.33717779078144816 0.0 0.21014100929138563 0.022763635449467582 0.0 0.16319053378382078 -0.4045407909972777 0.0 0.09260535154775623 -0.29992987244890956 0.0 0.48673353383955303 -0.43628329698721674 0.0 0.0 0.0 0.0 0.9438295365940054 0.22711072726654974 0.0 0.9520148069296295 0.03947671785584787 0.0 0.8118343205152094 -0.2704004984617786 0.0 0.2642390281667507 0.1691322671714871 0.0 0.5090662713478253 0.07685582292505115 0.0 0.8780854324900627 0.03364902624655374 0.0 1.0927087824150836 0.04558128220499048 0.0 1.2021599366314484 -0.1557427249985225 0.0 -0.09130125833892103 -0.0401722504260187 0.0 0.4143873746587053 -0.3362152598906202 0.0 0.5730470743511087 -0.4973681808339063 0.0 0.7604088738436423 -0.45943042478547236 0.0 0.7409037066493575 -0.5180068403129308 0.0 0.9371357113213236 -0.49561979015677693 0.0 0.9406386922171057 -0.4077476856558649 0.0 1.136535002458452 -0.4005735621633582 0.0 0.917879096564174 -0.47839330283079756 0.0 1.0871099828995539 -0.46511076167716237 0.0 1.049168407187323 -0.4379267801456474 0.0 1.1928250206791773 -0.41424564665357644 0.0 0.789531912966338 -0.45751388177354396 0.0 1.0577128758779588 -0.2869455928871667 0.0 1.184016028067856 -0.36185949784798876 0.0 1.2425571572125795 -0.2746825192076564 0.0 1.252992163882842 -0.3478268208686143 0.0 0.43981893973572117 -0.486515775617321 0.0 1.056087000564284 -0.34694238207466194 0.0 1.3090662300624627 -0.3061633650037099 0.0 0.8124994374504276 0.14192913657035555 0.0 0.2390635811877844 -0.5162770486227065 0.0 0.8475235979334252 -0.3813565876596432 0.0 0.7886824511055668 0.06506314065083087 0.0 0.6458568995724376 -0.440868640533837 0.0 0.19490899595538758 -0.4941646478386673 0.0 0.8975237684892186 -0.1732149429762469 0.0 0.4108708953886079 -0.405707665320998 0.0 0.2773671594475949 -0.5136615836626667 0.0 0.14044514730200605 -0.44708737231138534 0.0 0.49587753122532063 -0.4279105636400792 0.0 0.29175212131472295 -0.4817537856607238 0.0 0.7124408553210835 -0.2877498407482719 0.0 0.2886309341339597 -0.422828207588793 0.0 0.9100435824041136 0.2803554564135789 0.0 0.17863639570573475 -0.4761736166181656 0.0 0.33014382974136947 -0.29611677674297276 0.0 0.2656429438303275 -0.41543350621473696 0.0 0.3209910847724554 -0.34987774605181937 0.0 0.7744502187886733 0.10945895728077772 0.0 0.5171352345714513 -0.2020416348252977 0.0 0.4463116889197512 -0.27330090307594973 0.0 0.8897717389903528 -0.38672353173320867 0.0 1.2355090804283133 -0.3182884568624526 0.0 0.2095666006731825 0.10543911332412644 0.0 1.0805228766786092 0.01864451196157678 0.0 0.8733539609215307 -0.019299351365505042 0.0 0.8553669591872497 -0.1992425629842157 0.0 -0.23312287106649543 -0.011333740866201437 0.0 0.4391198150835671 -0.4971436420680315 0.0 0.2426065065156816 -0.47375172352955053 0.0 -0.04448802702092831 -0.3846047837315945 0.0 0.399681545493593 -0.5072852655094456 0.0 0.7375531795295491 -0.3656893360105589 0.0 0.8450503544612638 -0.09119008892503223 0.0 0.8333538939722707 -0.28810133484859346 0.0 0.793686109475852 -0.13483096937261152 0.0 0.44855716332276935 -0.2342270460454199 0.0 0.3154498983010978 -0.3284030580223571 0.0 0.4866083518625825 0.03715441063064133 0.0 0.3526557507374527 -0.16441478669670193 0.0 0.3763167977128526 -0.17119887174822443 0.0 1.1280353584528389 0.29348287694161607 0.0 0.5419949057473493 0.013651901868661503 0.0 0.8364665440468364 0.3765316535128693 0.0 0.660012963147075 0.2066035546088853 0.0 0.6343555561507269 0.30263093345591885 0.0 0.27071610280633407 -0.10591075618039184 0.0 0.7868523504955984 -0.21407333006092763 0.0 0.6535717481929936 -0.20801933740162118 0.0 0.9210484821151522 -0.31335789906436773 0.0 0.558357170586705 -0.30800307414612715 0.0 0.6098593130741424 -0.06464444391337716 0.0 0.8735981673612294 -0.155705170481359 0.0 0.9165446662059796 -0.23226879036686077 0.0 0.9798971228957086 -0.29417000920869196 0.0 0.5755936849583783 -0.15149853953169407 0.0 0.42481555173974334 -0.14755668554608842 0.0 0.4254031787013076 0.06414621534323457 0.0 0.3773944510766132 -0.07085900150832261 0.0 0.4184839709543546 0.0026626326339948972 0.0 0.45902544630514686 -0.022766089274680115 0.0 0.14465070438207034 -0.0572861871764578 0.0 0.5581496563627205 -0.012757165010158982 0.0 -0.07481768407844566 -0.18028264571775948 0.0 0.12586881884774997 -0.23826979455979497 0.0 -0.10173012432079821 -0.2852220035628168 0.0 1.118015777541517 0.042155084475561044 0.0 0.9860392093025314 0.04226030321040019 0.0 1.161579034400607 -0.2008782532851008 0.0 0.9206368462346433 -0.18382847435360813 0.0 0.49589543510501605 0.15572384057176056 0.0 0.573844983386517 0.27731585385899626 0.0 0.5936806568083096 -0.1028533395692904 0.0 0.1370214725955273 -0.33989142335872347 0.0 1.0795550736737436 0.04253805857140137 0.0 1.091787087513429 -0.225492819500885 0.0 1.1765286132236752 0.410813296113668 0.0 0.8791874168433809 -0.14970845159159843 0.0 0.5761450107566253 -0.07363881882905156 0.0 1.1753440349033486 0.03950907886210445 0.0 0.40398907899086817 -0.2072928477253095 0.0 0.8324885379684346 -0.059326846951115876 0.0 1.1001815532682653 0.03777035012621461 0.0 0.9597532274147317 -0.15608385173376943 0.0 0.8307350063460647 -0.0929639796102952 0.0 0.8470333752956927 -0.038216799990527815 0.0 1.0898472667185308 0.016075541076267214 0.0 1.0768422182740776 0.006158553739137813 0.0 1.2335943520740438 0.20540717368358352 0.0 1.2593593568452168 0.18771817294252938 0.0 1.0904282146026494 0.03398063283967185 0.0 0.9300074118134005 -0.010724876838421566 0.0 0.7715992043815963 0.00566275820262506 0.0 0.0 0.0 0.0 1.0967937326331911 0.048935946777744835 0.0 1.2149681774844616 0.19239881649271523 0.0 0.6758355126543156 -0.1303127418120618 0.0 1.131726511495023 0.07417996106735868 0.0 1.1506160542476982 0.11113096959793994 0.0 1.235969092242123 0.13627728045753773 0.0 0.9896892794206315 0.05656742829773575 0.0 1.1950324443778488 0.26584176345627597 0.0 1.1272912305523006 0.26155262413528113 0.0 0.7896230797505132 -0.011473087080513809 0.0 1.2685132372722687 0.2571702306634626 0.0 1.1260913794072143 0.18591082264959827 0.0 1.2562560393515165 0.3361505768933532 0.0 1.2445377880087785 0.30338508899792566 0.0 1.2390634517929784 0.39969967718395694 0.0 1.2200141494110825 0.09074343795666164 0.0 1.2276359991552073 0.12264481129584585 0.0 1.1355778361019933 0.11393531148807953 0.0 0.5714894039681211 -0.18273457997201534 0.0 0.770330311974667 0.14891785187107942 0.0 1.2041642401958343 0.306528159937249 0.0 1.2021584384967579 0.3423999837016946 0.0 0.9467124336839399 0.25430197650819397 0.0 1.0454016447907482 0.29355188630059864 0.0 1.1171394379673105 0.15954919753777466 0.0 0.9271516606678256 0.10357526770602783 0.0 1.1464764913738323 0.4041638595959624 0.0 0.862446796527317 0.20354801715244794 0.0 1.0789046029088034 0.19569028837262295 0.0 0.695608684034959 0.09433597433860146 0.0 1.0760404622285413 0.3318983884058089 0.0 1.0171793834327807 0.3148760808848747 0.0 1.1817329550545215 0.3819842191137206 0.0 0.8201689347725152 0.19558596306603332 0.0 0.0 0.0 0.0 0.6503007237499846 0.008885934799867719 0.0 1.1056837056840103 0.4139491281658823 0.0 1.2006335574422669 0.3865957141295572 0.0 1.0943930379235207 -0.38284853166273625 0.0 0.8513507970700301 -0.19160827070027095 0.0 0.9600928629417892 -0.20389291779278645 0.0 0.8933289494781398 -0.07891495991035577 0.0 1.2047880062732905 0.06905289701852958 0.0 1.1791231170292829 0.06227204222970562 0.0 1.2468515988698086 0.02371714150325763 0.0 1.1061014740815605 0.0093274516567755 0.0 1.1292902950368795 0.03344343849908095 0.0 -0.17590933116518692 0.1959746019186586 0.0 -0.02087550584586521 0.23009414500380299 0.0 0.15322421904068914 0.17452586603879428 0.0 0.032845696993143846 0.22142960380785606 0.0 0.23288348274277684 0.1585249924211825 0.0 -0.07845798596554394 0.2214284342734184 0.0 0.039709260238305455 0.19803958344886416 0.0 0.1848001753278467 0.13586201854470648 0.0 0.006031571298610499 0.17019879776213503 0.0 -0.05113677568787024 0.20343921043050248 0.0 0.9872110386397321 0.10175703073524403 0.0 0.05035980461771489 -0.46206770061497887 0.0 0.8114747750323795 -0.00678029435814943 0.0 0.8181822759563668 -0.06737012931941705 0.0 0.7490190337578623 -0.06162455686523656 0.0 0.7472566507039381 0.013878132515865933 0.0 0.7404919959106289 0.12626624224786304 0.0 0.5822047219831736 -0.02036820195042697 0.0 0.7679148006578482 0.10689634493840125 0.0 0.6156847563918554 0.053848846030675364 0.0 0.7122788823309124 0.04935548107367959 0.0 0.4818802634321371 0.13014097929888385 0.0 0.48350571299563305 0.05709186735862321 0.0 0.4466262655977281 0.104208509842679 0.0 0.5749681850620942 0.10570773095812996 0.0 0.7539537024106813 0.1422013769455054 0.0 0.561793650272936 0.16568459307326974 0.0 0.7703859390726889 0.08061407058804909 0.0 0.6623640206323083 0.14001949985064732 0.0 0.5915424498161473 0.2716329397736583 0.0 0.6410846556839144 0.1860033966049016 0.0 0.5790250579745908 0.22973204674031503 0.0 0.7278164516792879 0.3236960116588626 0.0 0.7489292991225772 0.2958327726022265 0.0 0.6498255654623022 0.2946658366911222 0.0 0.7650550139559417 0.40134992691224797 0.0 0.6622513257033628 0.2781641803873595 0.0 0.7204528443731008 0.35311846569198474 0.0 1.0498426590389403 0.021291272863648143 0.0 0.8455978220555813 0.37055000356007756 0.0 1.186326232103487 -0.2037531741672315 0.0 0.6864076624694612 0.21062328318725948 0.0 0.705230285321539 0.254432230865761 0.0 