<?xml version="1.0"?>
<VTKFile type="UnstructuredGrid"  version="0.1"  >
<UnstructuredGrid>
<Piece  NumberOfPoints="1289" NumberOfCells="2413">
<Points>
<DataArray  type="Float64"  NumberOfComponents="3"  format="ascii">0 0 0  0 0.41 0  2.2 0.41 0  2.2 0 0  0.1 0.1 0  0.1 0.3 0  0.8 0.3 0  0.8 0.1 0  0.25 0.2 0  0.248976 0.210065 0  0.245948 0.219718 0  0.241038 0.228563 0  0.234448 0.23624 0  0.226448 0.242432 0  0.217365 0.246888 0  0.207571 0.249423 0  0.197468 0.249936 0  0.187467 0.248404 0  0.17798 0.24489 0  0.169395 0.239539 0  0.162062 0.232569 0  0.156283 0.224265 0  0.152293 0.214968 0  0.150257 0.205058 0  0.150257 0.194942 0  0.152293 0.185032 0  0.156283 0.175735 0  0.162062 0.167431 0  0.169395 0.160461 0  0.17798 0.15511 0  0.187467 0.151596 0  0.197468 0.150064 0  0.207571 0.150577 0  0.217365 0.153112 0  0.226448 0.157568 0  0.234448 0.16376 0  0.241038 0.171437 0  0.245948 0.180282 0  0.248976 0.189935 0  1.1 0 0  1.1 0.41 0  0.1 0.2 0  0.45 0.1 0  0.45 0.3 0  0.55 0 0  0.275 0.1 0  0.275 0.3 0  0.275 0 0  0.55 0.41 0  0 0.205 0  0.825 0 0  0.825 0.41 0  0.275 0.41 0  0.1 0.15 0  0.1875 0.1 0  0.1 0.25 0  0.1875 0.3 0  0.132322 0.2 0  0.241426 0.253518 0  0.241426 0.146482 0  0.264574 0.17974 0  0.264574 0.22026 0  0.138434 0.187348 0  0.153372 0.150948 0  0.148413 0.164094 0  0.176495 0.136535 0  0.22768 0.143571 0  0.138434 0.212652 0  0.148413 0.235906 0  0.176495 0.263465 0  0.22768 0.256429 0  0.23125 0.3 0  0.24769 0.24094 0  0.23125 0.1 0  0.24769 0.15906 0  0.26253 0.193641 0  0.190482 0.137872 0  0.166753 0.146661 0  0.157737 0.244461 0  0.190482 0.262128 0  0.203107 0.261264 0  0.253635 0.22977 0  0.203107 0.138736 0  0.253635 0.17023 0  0.261028 0.206206 0  0.167707 0.251809 0  0.143629 0.224191 0  0.215302 0.2591 0  0.270465 0.245894 0  0.215302 0.1409 0  0.270465 0.154106 0  0.284052 0.202587 0  0.14375 0.3 0  0.209375 0.3 0  0.225966 0.278501 0  0.209375 0.1 0  0.225966 0.121499 0  0.211613 0.273759 0  0.211613 0.126241 0  0.143629 0.175809 0  0.1 0.175 0  0.133484 0.164832 0  0.144491 0.249539 0  0.1 0.225 0  0.133484 0.235168 0  0.3625 0.3 0  0.25691 0.253381 0  0.25691 0.146619 0  0.277205 0.188698 0  0.184724 0.275712 0  0.237372 0.268285 0  0.184724 0.124288 0  0.237372 0.131715 0  0.197578 0.273149 0  0.193656 0.286994 0  0.197578 0.126851 0  0.193656 0.113006 0  0.122953 0.187671 0  0.118362 0.153758 0  0.155372 0.258107 0  0.122953 0.212329 0  0.118362 0.246242 0  0.276394 0.27264 0  0.276394 0.12736 0  0.280965 0.170013 0  0.253125 0.3 0  0.14375 0.1 0  0.253125 0.1 0  0.269489 0.26014 0  0.269489 0.13986 0  0.303639 0.184297 0  0.165625 0.3 0  0.134742 0.273113 0  0.257831 0.274737 0  0.255279 0.128499 0  0.3625 0.1 0  0.165625 0.1 0  0.162031 0.132368 0  0.134955 0.126405 0  0.149334 0.125568 0  0.142936 0.139597 0  0.12695 0.140259 0  0.242514 0.285501 0  0.242514 0.114499 0  0.1 0.125 0  0.117483 0.12555 0  0.11154 0.139776 0  0.121875 0.1 0  0.109143 0.1125 0  0.126805 0.114 0  0.220313 0.29129 0  0.351562 0.287369 0  0.207222 0.2866 0  0.220312 0.10871 0  0.1375 0 0  0.20625 0 0  0.207222 0.1134 0  0.11722 0.17118 0  0.1 0.1625 0  0.0778409 0.16875 0  0.0862762 0.15625 0  0 0.15375 0  0 0.1025 0  0.11722 0.22882 0  0.1 0.2375 0  0 0.3075 0  0.0862762 0.23125 0  0.0598995 0.222547 0  0.0860223 0.2125 0  0.289584 0.181469 0  0.300267 0.16446 0  0.163832 0.269071 0  0.149597 0.273325 0  0.1 0.275 0  0.268498 0.285953 0  0.31875 0.3 0  0.294154 0.254672 0  0.296875 0.3 0  0.293558 0.271845 0  0.285095 0.286799 0  0.324298 0.264316 0  0.307866 0.263745 0  0.317093 0.234901 0  0.315485 0.281219 0  0.316547 0.250625 0  0.344693 0.243731 0  0.331592 0.251147 0  0.35129 0.270663 0  0.338689 0.263683 0  0.340625 0.3 0  0.249849 0.264383 0  0.265097 0.11422 0  0.284688 0.156136 0  0.242188 0.324017 0  0.0856613 0.2625 0  0.132812 0.0612217 0  0.264062 0.0612217 0  0.198437 0.07598340000000001 0  0.0860223 0.1375 0  0.0794526 0.191089 0  0.285228 0.140397 0  0.298655 0.148737 0  0.31875 0.1 0  0.327335 0.15374 0  0.296875 0.1 0  0.312289 0.155283 0  0.313348 0.135607 0  0.321802 0.173916 0  0.298433 0.134116 0  0.112124 0.2625 0  0.127526 0.259083 0  0.121875 0.3 0  0.0682687 0.241503 0  0.1 0.2875 0  0.117762 0.28125 0  0.107813 0.3 0  0.103906 0.313849 0  0.0778409 0.28125 0  0.1375 0.41 0  0.0862762 0.29375 0  0.08886860000000001 0.24375 0  0.307812 0.338778 0  0.307812 0.292227 0  0.33216 0.279164 0  0.387888 0.266414 0  0.264063 0.31948 0  0.110937 0.07598340000000001 0  0.242188 0.07598340000000001 0  0.319914 0.11839 0  0.340625 0.1 0  0.334448 0.133793 0  0.329687 0.108539 0  0.346259 0.118491 0  0.360334 0.173636 0  0.327539 0.205033 0  0.132812 0.288712 0  0.362436 0.278836 0  0.368105 0.259418 0  0.4125 0.41 0  0.329687 0.324017 0  0.329687 0.292306 0  0.285938 0.318952 0  0.417187 0.338778 0  0.324481 0.14148 0  0.351562 0.106771 0  0.40625 0.1 0  0.341028 0.168342 0  0.319221 0.190479 0  0.335292 0.184501 0  0.305563 0.20794 0  0.220313 0.31948 0  0.132812 0.332772 0  0.0865876 0.311259 0  0.0598995 0.302453 0  0.0906541 0.343255 0  0.353543 0.255837 0  0.36574 0.237633 0  0.405007 0.254279 0  0.275795 0.352123 0  0.4125 0 0  0.35493 0.137394 0  0.366563 0.120618 0  0.35917 0.205246 0  0.198438 0.318952 0  0.0626109 0.263892 0  0.40625 0.3 0  0.354809 0.155936 0  0.386512 0.146872 0  0.373101 0.159939 0  0.384375 0.1 0  0.343394 0.19929 0  0.350682 0.185683 0  0.368101 0.189748 0  0.344016 0.221511 0  0.391108 0.213329 0  0.376279 0.204783 0  0.398843 0.182768 0  0.375804 0.222746 0  0.390665 0.196958 0  0.394004 0.23518 0  0.359883 0.222828 0  0.419908 0.204359 0  0.404243 0.204783 0  0.412615 0.224526 0  0.20625 0.41 0  0.165625 0.325257 0  0.0347982 0.244954 0  0.379558 0.247154 0  0.34165 0.147603 0  0.372264 0.136992 0  0.388988 0.121989 0  0.373437 0.108554 0  0.351562 0.31948 0  0.391367 0.16527 0  0.399572 0.223324 0  0.452011 0.227371 0  0.40877 0.239392 0  0.431491 0.237337 0  0.421224 0.250459 0  0.449619 0.262098 0  0.418865 0.276779 0  0.437063 0.252274 0  0.415673 0.263227 0  0.430988 0.266772 0  0.402767 0.273419 0  0.452967 0.244883 0  0.428125 0.3 0  0.408502 0.286186 0  0.384375 0.3 0  0.392267 0.285807 0  0.465927 0.219339 0  0.43489 0.283846 0  0.376424 0.286289 0  0.625 0.3 0  0.473533 0.205186 0  0.461713 0.255517 0  0.5375 0.3 0  0.465725 0.235405 0  0.44631 0.201425 0  0.471875 0.3 0  0.494307 0.227729 0  0.459448 0.206736 0  0.462294 0.180792 0  0.478933 0.227536 0  0.486793 0.21381 0  0.486322 0.251373 0  0.50065 0.215318 0  0.54005 0.175389 0  0.474633 0.189893 0  0.512916 0.208697 0  0.49531 0.199967 0  0.475889 0.175275 0  0.625 0.1 0  0.459311 0.153933 0  0.513645 0.242704 0  0.392892 0.248539 0  0.374815 0.271913 0  0.365974 0.14871 0  0.395312 0.109184 0  0.417061 0.123981 0  0.483196 0.277003 0  0.381967 0.179632 0  0.429898 0.219374 0  0.433473 0.206165 0  0.43149 0.181038 0  0.444208 0.215487 0  0.472985 0.247309 0  0.49375 0.3 0  0.475579 0.262714 0  0.49916 0.274293 0  0.501175 0.184809 0  0.514164 0.225681 0  0.543648 0.214977 0  0.5341630000000001 0.23481 0  0.527396 0.216171 0  0.5375 0.1 0  0.534548 0.202315 0  0.561545 0.192513 0  0.5494289999999999 0.201221 0  0.570923 0.218346 0  0.412582 0.149833 0  0.489327 0.264745 0  0.502439 0.254775 0  0.462391 0.271166 0  0.496775 0.241732 0  0.5294410000000001 0.268606 0  0.482812 0.291099 0  0.46879 0.285038 0  0.452663 0.284065 0  0.51789 0.257882 0  0.53408 0.252026 0  0.560142 0.243543 0  0.545708 0.243474 0  0.547532 0.229019 0  0.55282 0.265323 0  0.398971 0.153424 0  0.400349 0.135684 0  0.410135 0.168145 0  0.428823 0.161323 0  0.415266 0.183779 0  0.329687 0.0810483 0  0.395312 0.0612217 0  0.373437 0.318952 0  0.439062 0.324017 0  0.561816 0.229354 0  0.585029 0.239287 0  0.431827 0.139854 0  0.446796 0.168929 0  0.351562 0.07598340000000001 0  0.395313 0.318944 0  0.54337 0.150762 0  0.460937 0.31948 0  0.418412 0.137529 0  0.428125 0.1 0  0.442783 0.152332 0  0.450742 0.134294 0  0.373437 0.0805201 0  0.384383 0.342558 0  0.482812 0.318952 0  0.429239 0.127457 0  0.444274 0.117405 0  0.426548 0.113815 0  0.49375 0.1 0  0.488954 0.113984 0  0.457973 0.121842 0  0.471621 0.137346 0  0.515625 0.325257 0  0.48125 0.41 0  0.417187 0.07598340000000001 0  0.496363 0.126778 0  0.479043 0.155715 0  0.439062 0.0805201 0  0.481795 0.126919 0  0.471875 0.1 0  0.489227 0.142159 0  0.515625 0.1 0  0.520062 0.147117 0  0.501244 0.161791 0  0.505431 0.112984 0  0.505344 0.14029 0  0.526563 0.119081 0  0.5181750000000001 0.131908 0  0.539868 0.136937 0  0.460937 0.108383 0  0.474242 0.114415 0  0.460937 0.0810483 0  0.487841 0.167168 0  0.526563 0.0612217 0  0.526563 0.106406 0  0.537619 0.112743 0  0.58125 0.1 0  0.559375 0.1 0  0.482812 0.08105569999999999 0  0.471883 0.0587655 0  0.570312 0.129396 0  0.548437 0.07598340000000001 0  0.504687 0.08105569999999999 0  0.49375 0.0470127 0  0.570312 0.112663 0  0.592798 0.12103 0  0.553986 0.12103 0  0.570312 0.0805201 0  0.48125 0 0  0.114787 0.2 0  0.160769 0.284765 0  0.175816 0.288361 0  0.162602 0.116048 0  0.154687 0.07598340000000001 0  0.176562 0.0805201 0  0.0598995 0.147547 0  0.307812 0.109924 0  0.291279 0.117157 0  0.278491 0.112989 0  0.285937 0.07598340000000001 0  0.307812 0.0805201 0  0.296928 0.196743 0  0.318141 0.218507 0  0.330208 0.227509 0  0.301397 0.225668 0  0.302706 0.241401 0  0.292574 0.21424 0  0.282762 0.230935 0  0.284351 0.244775 0  0.269553 0.23261 0  0.278572 0.217242 0  0.226924 0.342606 0  0.446928 0.185396 0  0.515625 0.3 0  0.504687 0.288879 0  0.515256 0.276534 0  0.529479 0.285328 0  0.58125 0.3 0  0.541969 0.272936 0  0.559375 0.3 0  0.556796 0.282529 0  0.543473 0.287206 0  0.581429 0.267774 0  0.566728 0.271171 0  0.570869 0.255585 0  0.577404 0.283865 0  0.603125 0.3 0  0.597531 0.28035 0  0.570312 0.338778 0  0.592188 0.292492 0  0.603513 0.256094 0  0.614063 0.286265 0  0.610329 0.27064 0  0.632708 0.251285 0  0.657223 0.261594 0  0.618789 0.257807 0  0.614188 0.22987 0  0.630935 0.265614 
[...]
<PointData  Vectors="v"> 
	<DataArray  type="Float64"  Name="v"  NumberOfComponents="3" format="ascii">
0.0 0.0 0.0 0.0 0.0 0.0 0.0 0.0 0.0 0.0 0.0 0.0 0.8045359666503246 -0.19586743591217604 0.0 0.8348727126908981 0.1853374958240376 0.0 1.0490811277904823 -0.0642355671104408 0.0 0.5014440040784022 0.06679703786383796 0.0 0.0 0.0 0.0 0.0 0.0 0.0 0.0 0.0 0.0 0.0 0.0 0.0 0.0 0.0 0.0 0.0 0.0 0.0 0.0 0.0 0.0 0.0 0.0 0.0 0.0 0.0 0.0 0.0 0.0 0.0 0.0 0.0 0.0 0.0 0.0 0.0 0.0 0.0 0.0 0.0 0.0 0.0 0.0 0.0 0.0 0.0 0.0 0.0 0.0 0.0 0.0 0.0 0.0 0.0 0.0 0.0 0.0 0.0 0.0 0.0 0.0 0.0 0.0 0.0 0.0 0.0 0.0 0.0 0.0 0.0 0.0 0.0 0.0 0.0 0.0 0.0 0.0 0.0 0.0 0.0 0.0 0.0 0.0 0.0 0.0 0.0 0.0 0.0 0.0 0.0 0.0 0.0 0.0 0.0 0.0 0.0 0.0 0.0 0.0 0.766080105200196 -0.0233569464951051 0.0 0.9344301607001416 0.005621082497978096 0.0 1.2218473372586682 -0.3148466994630024 0.0 0.0 0.0 0.0 1.3005308649793883 0.0193566317302019 0.0 1.2965627121068783 0.07896551917102232 0.0 0.0 0.0 0.0 0.0 0.0 0.0 1.0 0.0 0.0 0.0 0.0 0.0 0.0 0.0 0.0 0.0 0.0 0.0 0.8548703381188536 -0.24513200996360995 0.0 1.1766343062314295 -0.281206456198599 0.0 0.8634800241033679 0.2059745740601279 0.0 1.1554261612488776 0.29857728512763926 0.0 0.4331702543966156 -0.029164063348062767 0.0 0.17221337641508588 0.014091468625898143 0.0 0.2457114142290157 -0.008731831474913737 0.0 -0.04339270141995836 -0.15372938698390906 0.0 -0.048305602507247934 -0.006374289294436101 0.0 0.34401653904625196 -0.3096194199499952 0.0 0.8950055593505645 -0.6890470840649332 0.0 0.6685285028273855 -0.7188554246736599 0.0 1.2807505615593582 -0.6072460116911808 0.0 0.38976140468712167 0.023168544016581152 0.0 0.3303235630522732 0.24345267792735759 0.0 0.6428242619751224 0.6511736282446927 0.0 1.2092921247951223 0.5925402703582048 0.0 0.29770999018889127 -0.004294396089872814 0.0 1.2689477153401008 0.1817238301716176 0.0 -0.018860987711517528 0.020599402174194904 0.0 1.2900120218737354 -0.12048791571440498 0.0 0.0030306294050952256 -0.07469864332201955 0.0 -0.04410093331668557 -0.13121137762043913 0.0 1.2955034700480659 -0.40577848907694986 0.0 1.1660552413168341 -0.7484226366747884 0.0 0.8584311212373023 0.7602035148582377 0.0 1.2228248994659636 0.3933287703700782 0.0 0.9085929308553647 0.1617410078826134 0.0 -0.029831240609429016 0.0107943150735963 0.0 1.0090987766738313 -0.15910578585944782 0.0 -0.038412803549978995 -0.12870678165192156 0.0 -0.031094709813028948 -0.07511951230009736 0.0 1.0484889593992777 0.7154550368063134 0.0 0.43900608620992376 0.507615294507048 0.0 0.541261429020896 0.02921503999236599 0.0 0.054191534828752407 0.010132680102898233 0.0 0.6402350977708949 -0.019327398632817114 0.0 0.18415233705934433 -0.07508415347623626 0.0 -0.13740633838311822 -0.03920578543383271 0.0 0.9582389316253299 0.285383631238447 0.0 1.239311579351776 0.2359249192309604 0.0 1.2907193004052164 0.1946929633824867 0.0 1.2473125235331377 -0.20671475059971148 0.0 1.3598961339670614 -0.1531160572292594 0.0 1.298486693789609 0.24687297644335585 0.0 1.3777240612263233 -0.21613557438026768 0.0 0.46324177066576316 -0.5780512380423035 0.0 0.8109413895795007 -0.15926669485562994 0.0 0.6915282034428996 -0.4417160959639441 0.0 0.8806036489441154 0.5730321423869905 0.0 0.8007370062149539 0.11931250280786783 0.0 0.6770586834313428 0.39473432944573317 0.0 1.3227529865969678 -0.07296012436891385 0.0 0.18657544797188572 0.0023014271850898024 0.0 0.32169874144723004 -0.019175338543256294 0.0 -0.09084677315917962 -0.11116876299654493 0.0 1.2905751335979099 0.4183188034645983 0.0 0.8833278154414026 0.05818062804548203 0.0 1.3361868442617169 -0.4201384330970597 0.0 1.034698622596378 -0.027530103750542254 0.0 1.3234235162393724 0.35187789664359875 0.0 1.2586071330900523 0.3357928984349171 0.0 1.3791202566313574 -0.33504659470627834 0.0 1.2930362340091737 -0.30214633797750945 0.0 0.5941985179451389 -0.18586754176900516 0.0 0.813969825368643 -0.34789485319631686 0.0 1.0192468887209198 0.5810050262499248 0.0 0.5939129394250537 0.12489959305506518 0.0 0.8130254165021062 0.3068878565327201 0.0 0.8694014547673838 0.01884358647939447 0.0 1.1078570674974852 0.04598813108082569 0.0 0.023848555069436242 -0.10786197652730108 0.0 1.2937087440743233 0.12172477063848411 0.0 0.9490898709578932 -0.3053276688047189 0.0 1.3007642970164879 -0.044504225142719116 0.0 0.4015532235849345 -0.0042415761595607625 0.0 0.6329009274745789 0.013999803193844971 0.0 -0.11473214783905712 -0.00638314680547179 0.0 1.0498800153559442 0.3113464225047756 0.0 0.9431369001295017 0.36386821515773843 0.0 1.0302269403288398 0.05426304877407038 0.0 1.083684409445775 -0.0011111191422682122 0.0 1.1159679464179482 0.19511260002299627 0.0 1.052495914334503 -0.308964197091796 0.0 1.1264526381127025 -0.5633799471934018 0.0 0.9573682970803937 -0.3878866206147542 0.0 1.0339149969744794 -0.4287946791412918 0.0 0.9679739756321808 -0.551392929192612 0.0 0.8888128527930088 -0.4158848381989018 0.0 1.3010385831005156 0.14344790926226753 0.0 1.3513251874031986 -0.08290846084247898 0.0 0.8645207561077385 -0.24163555707429724 0.0 0.8972806908522067 -0.313085304529617 0.0 0.8694640623524378 -0.30843494552213224 0.0 0.8646021168911963 -0.2498643387586877 0.0 0.8674107893316263 -0.2528720579761909 0.0 0.9156199050432992 -0.31526466258981506 0.0 1.304519439611345 0.2173985957587554 0.0 1.226777828303562 -0.030907860016974466 0.0 1.3162577270926838 0.27875094599113004 0.0 1.335244086473111 -0.16035700367859726 0.0 0.0 0.0 0.0 0.0 0.0 0.0 1.3445670092058137 -0.24050777250998528 0.0 0.7273716928862272 -0.2888885598657881 0.0 0.8312449334360369 -0.22717101318404967 0.0 0.8768833423051083 -0.12579331400674013 0.0 0.8706383346471764 -0.17742996431040373 0.0 0.9375 0.0 0.0 0.7500000000000001 0.0 0.0 0.7238601107782244 0.2409034276866296 0.0 0.8245332351812709 0.17693921999085666 0.0 0.7499999999999999 0.0 0.0 0.8704645371689741 0.10621753028464091 0.0 0.9294369532906048 0.02732501427946155 0.0 0.8508682417941124 0.024296869538507647 0.0 -0.07523384899280662 -0.07849110771365612 0.0 0.14136454541870005 -0.017458461167953635 0.0 1.1261904742088755 0.52429536952378 0.0 1.0218721713383248 0.4439663369864558 0.0 0.8782853196832086 0.22181981974650397 0.0 1.2396455135217712 0.07041134149976495 0.0 1.295040703626319 0.01116323486791831 0.0 0.2576587770915551 0.01145986119945 0.0 1.2985904425505221 0.04185598703502191 0.0 0.8054507300726188 0.0059124066358794206 0.0 1.2182250354689854 0.043353915096771105 0.0 0.5822217284416048 0.030228179509199787 0.0 0.5272881987070179 0.015290514674486333 0.0 0.005507463954045017 0.11461515722091416 0.0 1.0715924160680115 0.00866248258291051 0.0 0.23620624686822084 0.06521211082651139 0.0 0.23998845279727216 0.15651615434512678 0.0 0.3048952631681633 0.09371754535439587 0.0 0.8560517044436968 0.016221256790678512 0.0 0.6155917232170317 0.04747673069023757 0.0 1.3102800258649823 -0.027425758765013953 0.0 0.6134487003231115 0.014115851882475178 0.0 1.335401234171129 -0.004002373145383734 0.0 0.2398128310646637 -0.047095283162789305 0.0 1.1317404504367143 0.1050065336110319 0.0 0.8816655514166666 0.15847943164588282 0.0 0.7042115984208516 -0.15463013292304367 0.0 1.0080182873016494 -0.0011878344137825135 0.0 1.0255684441788733 -0.15909050634266328 0.0 0.8723176987351231 -0.19159233876114143 0.0 0.8792227778394841 -0.0437094614914183 0.0 0.6765570765280615 0.037534937242439705 0.0 0.48432309458395173 0.04631930988701101 0.0 1.2450914949427394 0.14606202918967928 0.0 0.47789379688230305 0.18350367890844657 0.0 1.291501905435702 0.0843361153446863 0.0 0.3798635687071793 0.09179347043326974 0.0 0.9374761115514153 0.16503274244969138 0.0 0.021725421104019232 0.11519629962117771 0.0 0.9360303105340102 0.11087889046741708 0.0 0.8777260776880618 0.2725411022642916 0.0 0.8799470406240448 0.38527412970210667 0.0 0.8779831008453864 0.2432322272988297 0.0 0.9124079492471837 0.09162976408914206 0.0 0.861358881142864 0.20039006222143332 0.0 0.9013336723535708 0.2774514076342951 0.0 0.8511265800385296 0.20933893965849318 0.0 0.7946477406116746 0.1620888062198353 0.0 0.8642905163023767 0.14237896324938681 0.0 0.0 0.0 0.0 0.8376123459948189 0.15655349785817405 0.0 0.8707295683456993 0.14940375022124316 0.0 1.0950559807855107 0.0006967923367391552 0.0 1.2580020647215748 0.021312697716622746 0.0 1.0306565318472536 0.0032390332216912796 0.0 0.968802851056424 -0.047871422457114905 0.0 1.193492238596264 0.07804254241134669 0.0 0.7230182552381644 -0.16763071615387642 0.0 1.1141362211276922 -0.05830323278977216 0.0 1.245563581250905 0.19214295294771055 0.0 1.1935411393257203 0.18476807044216637 0.0 1.0068501466847455 0.26195437696816515 0.0 1.2461506750703621 0.19673400887334444 0.0 1.1743795478974886 0.25719306310733003 0.0 0.051757426817001344 0.36520913658227205 0.0 -0.24790769251732048 0.17319473243053596 0.0 0.9406692628739102 0.3118885026404916 0.0 1.1084975548459826 -0.03482382448013935 0.0 0.681414659062654 0.061769457893685986 0.0 0.0 0.0 0.0 1.207339837263911 -0.021696879162486568 0.0 1.2648853395527906 -0.006795233748285893 0.0 1.2128373439263953 0.048881486529571284 0.0 1.039885314237012 -0.16334575844581492 0.0 0.7985016081653582 0.2018319020704333 0.0 1.1726973946062011 0.21934702773215659 0.0 0.9880081862756496 0.13129127616878605 0.0 0.15788130104390685 0.2529166051571477 0.0 -0.1893726726288107 0.09168708523661528 0.0 -0.13537640975278203 0.19948239357375724 0.0 -0.20474536107080085 0.05296934629184299 0.0 1.1352014790067717 0.15552271197254294 0.0 0.7632404381845033 0.17351836939399157 0.0 0.7729635576959145 0.13562941599843673 0.0 0.7834848204138241 0.09267933802277771 0.0 0.6122179410698619 0.09617314276325455 0.0 0.5152822795311987 0.09671363314754833 0.0 0.2506180236811189 0.2139267959720708 0.0 0.847725868455804 -0.05076324325605202 0.0 0.9643401883766747 0.0337842059058808 0.0 0.0 0.0 0.0 0.9098210616799207 0.32253121043040217 0.0 1.0871255810736202 0.2776464239827734 0.0 -0.2415476361347166 0.35089228125868727 0.0 1.0645643884254021 0.21216451728264155 0.0 0.8992488991988778 0.09591169701027526 0.0 1.3280136945942986 -0.20607238890004023 0.0 0.4715047555979976 0.3322182760678215 0.0 0.6251980803434525 0.3498859203547427 0.0 0.35855474317560476 0.38754771314933617 0.0 1.0492978002023008 0.17403487189652278 0.0 -0.2539314312315763 0.2633940247524834 0.0 -0.15216764324208443 0.3071100902840267 0.0 -0.19412773698993985 0.4039992239992963 0.0 -0.12493155922526986 0.2408299385801825 0.0 -0.0177235770716405 0.337089329871865 0.0 -0.19615600326993216 0.39398304816633817 0.0 -0.1293881277500909 0.44480353557557467 0.0 0.03139089066560895 0.298158111304935 0.0 -0.18590033818803803 0.4233664445306757 0.0 0.41150043096384625 0.1576145210000056 0.0 -0.04128715185587431 0.2889750115608975 0.0 0.06341002297893586 0.2295426431860442 0.0 -0.05074224242156682 0.3397457234260277 0.0 0.3504673444355695 0.12753176511188058 0.0 0.0 0.0 0.0 0.9233430356632637 0.21931955538791303 0.0 0.951505005593768 0.03039159883182748 0.0 0.5255636840163403 0.1246103148458695 0.0 0.6699933748538704 0.2796076303463009 0.0 0.8639866929624967 0.3305722825499945 0.0 0.9803199759116384 0.25214084095549016 0.0 1.0932995554180052 0.22314998795773294 0.0 1.2442416075978393 -0.05502155995012816 0.0 0.18502061384002405 0.4140136556563551 0.0 0.22348515799880259 0.2213946608950958 0.0 0.7075066960410832 -0.2693501282824377 0.0 0.6030179924950676 0.034537205270231484 0.0 0.7395853031196757 -0.13560480353163093 0.0 0.8977476186544443 -0.14129940121531923 0.0 1.200856452822962 -0.40309050359458454 0.0 1.2846238170805095 -0.25812875157536164 0.0 1.0303971956681497 -0.2851660280643426 0.0 1.086917723330256 -0.18374427332290083 0.0 1.2118523476066931 -0.301990550883272 0.0 1.189324433613437 -0.15980265686984393 0.0 0.9953294662977332 -0.3752229572929383 0.0 1.2873161589966569 -0.2665148181418783 0.0 1.3269713891434713 -0.2223249019866997 0.0 1.3375834515159006 -0.132623430380795 0.0 1.3068318036718138 -0.14789534698111093 0.0 0.654073971379167 -0.3555521886031734 0.0 1.3161012870837236 -0.3345530521311184 0.0 1.2720827875895848 -0.09530860008149779 0.0 0.6681641495669428 0.07037352784351973 0.0 0.4865501885427746 -0.33789913993537984 0.0 1.1476484580259239 -0.458088218692668 0.0 0.8745456354613845 -0.1883775143064424 0.0 0.9060406947725387 -0.4346666035404896 0.0 0.23295405687308832 -0.014229953792522105 0.0 1.1337345851511065 -0.328759635846918 0.0 0.8761657177928913 -0.5355680737215909 0.0 0.41582154785178593 -0.20559980374667125 0.0 0.13290062296066119 -0.05532501601306449 0.0 0.8440790711228436 -0.4916482748018967 0.0 0.6852412731136309 -0.47230069664533175 0.0 1.09066907939712 -0.5169912396960158 0.0 0.7535553096102813 -0.5228207950387497 0.0 0.5079726259407066 -0.42241772413073286 0.0 0.30153601590849677 -0.23723025258894426 0.0 0.7116357849065834 -0.5074268190507115 0.0 0.5533704972001152 -0.4446353619013522 0.0 0.18788029108148913 -0.1502926765670573 0.0 1.0944014347385476 0.2632606062940647 0.0 0.1499322367239401 0.08094983706149278 0.0 0.9705656803352481 -0.49186240761450933 0.0 0.6501620477138793 0.05950781915254269 0.0 1.004570597084916 -0.03160020886794147 0.0 0.6390213113804649 0.3632332400927204 0.0 1.0134626489889453 0.18241402297932532 0.0 0.8565234770735629 0.1634454318738697 0.0 1.1544955250774593 -0.4250668993120294 0.0 -0.07648628497139613 0.44134608473352327 0.0 0.39880693928617306 0.007887650488433897 0.0 0.1977551096839618 0.08938351765821102 0.0 -0.05537859380544614 0.2574134032635947 0.0 0.44001153145025357 -0.10804449395211614 0.0 1.07285830318201 -0.4995827803147067 0.0 1.0418057968817074 -0.30548327323892027 0.0 1.1743728713929729 -0.4844273177908162 0.0 1.0887210938588514 -0.41128696693679623 0.0 0.4326942845463562 -0.38126866706555296 0.0 0.863542275106934 -0.5226638962320276 0.0 0.7660835306066287 -0.43291668717719056 0.0 0.8782688627239942 -0.4311496968634466 0.0 0.786637919408756 -0.48689572173750084 0.0 1.089105376127367 -0.017340919491746442 0.0 0.687437571249711 -0.46242694269601115 0.0 0.6132720265261937 -0.4302584460164463 0.0 0.6847863662583784 -0.42839388652206367 0.0 0.712237022913175 -0.34565037142754323 0.0 0.4387819248395385 0.3025075239877399 0.0 1.1278842173860817 -0.4726426004874553 0.0 1.0535378584847173 -0.4863110171219551 0.0 1.2363161798750955 -0.44057128796467965 0.0 1.0059388316600302 -0.5316490385465265 0.0 0.9604596178678908 -0.3349750973482609 0.0 1.1230496089468036 -0.36487086445919786 0.0 1.206900749305736 -0.3967947058149992 0.0 1.2681589218094784 -0.38087753525484974 0.0 1.0006353752635602 -0.42286333289027583 0.0 0.9295566960320385 -0.37884321727135256 0.0 0.822985744886917 -0.290365682593508 0.0 0.8735313807171741 -0.35454029034229806 0.0 0.8241996100097914 -0.3895237576031978 0.0 0.8732090544063963 -0.24719600367244027 0.0 0.4245466275093722 0.35311172196574825 0.0 0.769619583256787 0.2737204041558524 0.0 0.055934528974544276 0.39048323804490476 0.0 0.10570860568097146 0.2872335642888798 0.0 -0.10462041071626534 0.3743472150782953 0.0 1.111331950940224 0.12741088894618988 0.0 0.8574070695885346 0.08185153205933293 0.0 1.2487051493547676 -0.10515706355690996 0.0 1.0991576514798165 -0.23545244173615446 0.0 0.7832707645384142 -0.33197743610236613 0.0 0.7112276078954923 -0.23301694594959144 0.0 0.5397682386932121 0.1802625860884945 0.0 0.01730697326017744 0.17325307243266322 0.0 1.0303350571383234 0.13358602814024811 0.0 1.2301918525429838 -0.1565766053783919 0.0 0.5112601013586924 -0.32686519501802475 0.0 1.064037159350722 -0.26120090943045104 0.0 0.6577947576910581 0.21405853494675572 0.0 0.9469116028667363 0.06844113724629283 0.0 0.2187335766585874 0.18830116581292908 0.0 0.5603765775801124 0.07713305285221086 0.0 1.009054171743796 0.13551199958979537 0.0 1.059972050283747 -0.11014848449208411 0.0 0.9919141542698602 -0.25305242923838495 0.0 0.7669162774775211 0.12969791572508405 0.0 0.8432295723951163 0.0402819087896253 0.0 0.9093255953486108 0.09568173623466365 0.0 0.9739643246799427 -0.06801211743761432 0.0 0.841420983221046 -0.08238719466486664 0.0 0.7538380329861677 0.0035134824381875926 0.0 0.41883399353078105 -0.005366869853574641 0.0 0.8244384956203132 -0.17438172754958856 0.0 0.0 0.0 0.0 0.9158235960551975 0.06661699129735318 0.0 0.6254105937144228 -0.10972235443804622 0.0 0.1781552588421632 -0.07193136221935068 0.0 0.9141421086273759 0.025300109746458736 0.0 0.6191755963991058 -0.06726056777934514 0.0 0.9429378984262682 -0.04397245296607657 0.0 0.336902594053534 -0.09983273559108431 0.0 1.0276035104634273 -0.06036950927642917 0.0 0.39768217081645124 -0.2678268960012176 0.0 0.27444121906465624 -0.26266737962519726 0.0 0.8814470062138126 -0.09862028520864559 0.0 0.4079381729570657 -0.17122806990057476 0.0 0.865367289622306 -0.11779154867058986 0.0 0.6013358510615412 -0.1843611400097646 0.0 0.6518617332477632 -0.22092634042238746 0.0 0.8983989346223178 -0.02450681018317005 0.0 0.83396554108916 -0.0506814213303077 0.0 0.9224272633332773 -0.010993234152565827 0.0 0.21539297537269533 -0.19701146711612758 0.0 0.8640808548270967 0.01734499162291493 0.0 1.0209189296831995 -0.06638618941175285 0.0 1.0096372423783755 -0.06797751384398971 0.0 1.1783291057125092 0.14454915953439132 0.0 1.1527493916666303 0.05559298612051051 0.0 0.9521185694772274 -0.030412301376754772 0.0 0.8082987532347158 -1.8783471931476313e-05 0.0 1.0252746946179325 -0.029740571134415857 0.0 1.0141069814199488 0.053690471487484674 0.0 0.9877293843355355 -0.02906292694952138 0.0 0.7038859700895441 0.0011243976921898131 0.0 1.1648546815507468 0.07172082477712265 0.0 1.2188037147087618 0.17125926347928336 0.0 1.0061393987447236 -0.0609525778817697 0.0 1.0460661920110683 0.1094759491381176 0.0 0.0 0.0 0.0 0.650021413526929 -0.028935526377487295 0.0 1.0792591679054035 0.3970001493181668 0.0 1.170576797265023 0.3754505472317858 0.0 1.1230043619222752 -0.3986672263400619 0.0 0.87030376656175 -0.20016557400265006 0.0 0.98369736376414 -0.20911385273559072 0.0 0.8962497099241127 -0.09445136794443947 0.0 1.300741398048041 0.13301944619269293 0.0 1.2947696272648046 0.09102012195702874 0.0 1.3250910647748295 0.04613406300652555 0.0 1.1259007397138028 0.04999653700262566 0.0 1.1421707434013009 0.09672488024673245 0.0 -0.1740698425129776 -0.015306452824300444 0.0 -0.16893858081462257 0.12770226932663808 0.0 -0.06425224645851757 0.1718358537249816 0.0 -0.09909651767991699 0.06754722107702733 0.0 0.05800194606250688 0.060046999178321084 0.0 -0.14879237416996735 0.0217954772420051 0.0 -0.05516737828735312 0.029091684700653098 0.0 0.062249237913499705 0.02184091343181409 0.0 -0.04461538225429487 0.016229912347596694 0.0 -0.0992354566978036 0.0013260979442101038 0.0 0.9671346191344196 0.11115082441849901 0.0 0.05826057320404472 0.08298045231904023 0.0 0.9542805977971826 -0.2545373620004315 0.0 1.0339392439971575 -0.33451700341133606 0.0 1.010899490985379 -0.3547817760502 0.0 0.9421771979180655 -0.2696677783208355 0.0 0.7583900036792262 -0.029405715698740106 0.0 0.9089255710770189 -0.26559258564105165 0.0 0.8082542490637262 -0.10667347930630006 0.0 0.8500442833327269 -0.17135511255684874 0.0 0.885503198891911 -0.20908862944923295 0.0 0.7752119809068927 -0.11681578478448532 0.0 0.8256719540901419 -0.16503761219633323 0.0 0.8031717690917871 -0.2020692404988063 0.0 0.7868907610168767 -0.08374380333868897 0.0 0.7177333492299265 0.03963629008163727 0.0 0.7265604664295435 -0.02545445585388773 0.0 0.6219323719766494 -0.010829785532361717 0.0 0.7437940379052154 -0.00571055518101146 0.0 0.6457322753695404 -0.14592429628711281 0.0 0.6721676683714172 0.017181385025415868 0.0 0.6470439800126133 -0.06108608904044932 0.0 0.5217976340508341 -0.07778266353490766 0.0 0.5341641541459847 0.10116523939856922 0.0 0.5619587265687479 -0.1311866333543338 0.0 0.5620983389298764 -0.23481612582071895 0.0 0.5280720249741718 -0.06566293336361709 0.0 0.5409786312559909 -0.17398932599258382 0.0 0.568991349365998 0.10634328341714742 0.0 0.6452828483988068 0.06282362518000628 0.0 0.6578742658623353 0.1620346520153337 0.0 0.5812169748414888 0.007164286921652162 0.