<?xml version="1.0"?>
<VTKFile type="UnstructuredGrid"  version="0.1"  >
<UnstructuredGrid>
<Piece  NumberOfPoints="1289" NumberOfCells="2413">
<Points>
<DataArray  type="Float64"  NumberOfComponents="3"  format="ascii">0 0 0  0 0.41 0  2.2 0.41 0  2.2 0 0  0.1 0.1 0  0.1 0.3 0  0.8 0.3 0  0.8 0.1 0  0.25 0.2 0  0.248976 0.210065 0  0.245948 0.219718 0  0.241038 0.228563 0  0.234448 0.23624 0  0.226448 0.242432 0  0.217365 0.246888 0  0.207571 0.249423 0  0.197468 0.249936 0  0.187467 0.248404 0  0.17798 0.24489 0  0.169395 0.239539 0  0.162062 0.232569 0  0.156283 0.224265 0  0.152293 0.214968 0  0.150257 0.205058 0  0.150257 0.194942 0  0.152293 0.185032 0  0.156283 0.175735 0  0.162062 0.167431 0  0.169395 0.160461 0  0.17798 0.15511 0  0.187467 0.151596 0  0.197468 0.150064 0  0.207571 0.150577 0  0.217365 0.153112 0  0.226448 0.157568 0  0.234448 0.16376 0  0.241038 0.171437 0  0.245948 0.180282 0  0.248976 0.189935 0  1.1 0 0  1.1 0.41 0  0.1 0.2 0  0.45 0.1 0  0.45 0.3 0  0.55 0 0  0.275 0.1 0  0.275 0.3 0  0.275 0 0  0.55 0.41 0  0 0.205 0  0.825 0 0  0.825 0.41 0  0.275 0.41 0  0.1 0.15 0  0.1875 0.1 0  0.1 0.25 0  0.1875 0.3 0  0.132322 0.2 0  0.241426 0.253518 0  0.241426 0.146482 0  0.264574 0.17974 0  0.264574 0.22026 0  0.138434 0.187348 0  0.153372 0.150948 0  0.148413 0.164094 0  0.176495 0.136535 0  0.22768 0.143571 0  0.138434 0.212652 0  0.148413 0.235906 0  0.176495 0.263465 0  0.22768 0.256429 0  0.23125 0.3 0  0.24769 0.24094 0  0.23125 0.1 0  0.24769 0.15906 0  0.26253 0.193641 0  0.190482 0.137872 0  0.166753 0.146661 0  0.157737 0.244461 0  0.190482 0.262128 0  0.203107 0.261264 0  0.253635 0.22977 0  0.203107 0.138736 0  0.253635 0.17023 0  0.261028 0.206206 0  0.167707 0.251809 0  0.143629 0.224191 0  0.215302 0.2591 0  0.270465 0.245894 0  0.215302 0.1409 0  0.270465 0.154106 0  0.284052 0.202587 0  0.14375 0.3 0  0.209375 0.3 0  0.225966 0.278501 0  0.209375 0.1 0  0.225966 0.121499 0  0.211613 0.273759 0  0.211613 0.126241 0  0.143629 0.175809 0  0.1 0.175 0  0.133484 0.164832 0  0.144491 0.249539 0  0.1 0.225 0  0.133484 0.235168 0  0.3625 0.3 0  0.25691 0.253381 0  0.25691 0.146619 0  0.277205 0.188698 0  0.184724 0.275712 0  0.237372 0.268285 0  0.184724 0.124288 0  0.237372 0.131715 0  0.197578 0.273149 0  0.193656 0.286994 0  0.197578 0.126851 0  0.193656 0.113006 0  0.122953 0.187671 0  0.118362 0.153758 0  0.155372 0.258107 0  0.122953 0.212329 0  0.118362 0.246242 0  0.276394 0.27264 0  0.276394 0.12736 0  0.280965 0.170013 0  0.253125 0.3 0  0.14375 0.1 0  0.253125 0.1 0  0.269489 0.26014 0  0.269489 0.13986 0  0.303639 0.184297 0  0.165625 0.3 0  0.134742 0.273113 0  0.257831 0.274737 0  0.255279 0.128499 0  0.3625 0.1 0  0.165625 0.1 0  0.162031 0.132368 0  0.134955 0.126405 0  0.149334 0.125568 0  0.142936 0.139597 0  0.12695 0.140259 0  0.242514 0.285501 0  0.242514 0.114499 0  0.1 0.125 0  0.117483 0.12555 0  0.11154 0.139776 0  0.121875 0.1 0  0.109143 0.1125 0  0.126805 0.114 0  0.220313 0.29129 0  0.351562 0.287369 0  0.207222 0.2866 0  0.220312 0.10871 0  0.1375 0 0  0.20625 0 0  0.207222 0.1134 0  0.11722 0.17118 0  0.1 0.1625 0  0.0778409 0.16875 0  0.0862762 0.15625 0  0 0.15375 0  0 0.1025 0  0.11722 0.22882 0  0.1 0.2375 0  0 0.3075 0  0.0862762 0.23125 0  0.0598995 0.222547 0  0.0860223 0.2125 0  0.289584 0.181469 0  0.300267 0.16446 0  0.163832 0.269071 0  0.149597 0.273325 0  0.1 0.275 0  0.268498 0.285953 0  0.31875 0.3 0  0.294154 0.254672 0  0.296875 0.3 0  0.293558 0.271845 0  0.285095 0.286799 0  0.324298 0.264316 0  0.307866 0.263745 0  0.317093 0.234901 0  0.315485 0.281219 0  0.316547 0.250625 0  0.344693 0.243731 0  0.331592 0.251147 0  0.35129 0.270663 0  0.338689 0.263683 0  0.340625 0.3 0  0.249849 0.264383 0  0.265097 0.11422 0  0.284688 0.156136 0  0.242188 0.324017 0  0.0856613 0.2625 0  0.132812 0.0612217 0  0.264062 0.0612217 0  0.198437 0.07598340000000001 0  0.0860223 0.1375 0  0.0794526 0.191089 0  0.285228 0.140397 0  0.298655 0.148737 0  0.31875 0.1 0  0.327335 0.15374 0  0.296875 0.1 0  0.312289 0.155283 0  0.313348 0.135607 0  0.321802 0.173916 0  0.298433 0.134116 0  0.112124 0.2625 0  0.127526 0.259083 0  0.121875 0.3 0  0.0682687 0.241503 0  0.1 0.2875 0  0.117762 0.28125 0  0.107813 0.3 0  0.103906 0.313849 0  0.0778409 0.28125 0  0.1375 0.41 0  0.0862762 0.29375 0  0.08886860000000001 0.24375 0  0.307812 0.338778 0  0.307812 0.292227 0  0.33216 0.279164 0  0.387888 0.266414 0  0.264063 0.31948 0  0.110937 0.07598340000000001 0  0.242188 0.07598340000000001 0  0.319914 0.11839 0  0.340625 0.1 0  0.334448 0.133793 0  0.329687 0.108539 0  0.346259 0.118491 0  0.360334 0.173636 0  0.327539 0.205033 0  0.132812 0.288712 0  0.362436 0.278836 0  0.368105 0.259418 0  0.4125 0.41 0  0.329687 0.324017 0  0.329687 0.292306 0  0.285938 0.318952 0  0.417187 0.338778 0  0.324481 0.14148 0  0.351562 0.106771 0  0.40625 0.1 0  0.341028 0.168342 0  0.319221 0.190479 0  0.335292 0.184501 0  0.305563 0.20794 0  0.220313 0.31948 0  0.132812 0.332772 0  0.0865876 0.311259 0  0.0598995 0.302453 0  0.0906541 0.343255 0  0.353543 0.255837 0  0.36574 0.237633 0  0.405007 0.254279 0  0.275795 0.352123 0  0.4125 0 0  0.35493 0.137394 0  0.366563 0.120618 0  0.35917 0.205246 0  0.198438 0.318952 0  0.0626109 0.263892 0  0.40625 0.3 0  0.354809 0.155936 0  0.386512 0.146872 0  0.373101 0.159939 0  0.384375 0.1 0  0.343394 0.19929 0  0.350682 0.185683 0  0.368101 0.189748 0  0.344016 0.221511 0  0.391108 0.213329 0  0.376279 0.204783 0  0.398843 0.182768 0  0.375804 0.222746 0  0.390665 0.196958 0  0.394004 0.23518 0  0.359883 0.222828 0  0.419908 0.204359 0  0.404243 0.204783 0  0.412615 0.224526 0  0.20625 0.41 0  0.165625 0.325257 0  0.0347982 0.244954 0  0.379558 0.247154 0  0.34165 0.147603 0  0.372264 0.136992 0  0.388988 0.121989 0  0.373437 0.108554 0  0.351562 0.31948 0  0.391367 0.16527 0  0.399572 0.223324 0  0.452011 0.227371 0  0.40877 0.239392 0  0.431491 0.237337 0  0.421224 0.250459 0  0.449619 0.262098 0  0.418865 0.276779 0  0.437063 0.252274 0  0.415673 0.263227 0  0.430988 0.266772 0  0.402767 0.273419 0  0.452967 0.244883 0  0.428125 0.3 0  0.408502 0.286186 0  0.384375 0.3 0  0.392267 0.285807 0  0.465927 0.219339 0  0.43489 0.283846 0  0.376424 0.286289 0  0.625 0.3 0  0.473533 0.205186 0  0.461713 0.255517 0  0.5375 0.3 0  0.465725 0.235405 0  0.44631 0.201425 0  0.471875 0.3 0  0.494307 0.227729 0  0.459448 0.206736 0  0.462294 0.180792 0  0.478933 0.227536 0  0.486793 0.21381 0  0.486322 0.251373 0  0.50065 0.215318 0  0.54005 0.175389 0  0.474633 0.189893 0  0.512916 0.208697 0  0.49531 0.199967 0  0.475889 0.175275 0  0.625 0.1 0  0.459311 0.153933 0  0.513645 0.242704 0  0.392892 0.248539 0  0.374815 0.271913 0  0.365974 0.14871 0  0.395312 0.109184 0  0.417061 0.123981 0  0.483196 0.277003 0  0.381967 0.179632 0  0.429898 0.219374 0  0.433473 0.206165 0  0.43149 0.181038 0  0.444208 0.215487 0  0.472985 0.247309 0  0.49375 0.3 0  0.475579 0.262714 0  0.49916 0.274293 0  0.501175 0.184809 0  0.514164 0.225681 0  0.543648 0.214977 0  0.5341630000000001 0.23481 0  0.527396 0.216171 0  0.5375 0.1 0  0.534548 0.202315 0  0.561545 0.192513 0  0.5494289999999999 0.201221 0  0.570923 0.218346 0  0.412582 0.149833 0  0.489327 0.264745 0  0.502439 0.254775 0  0.462391 0.271166 0  0.496775 0.241732 0  0.5294410000000001 0.268606 0  0.482812 0.291099 0  0.46879 0.285038 0  0.452663 0.284065 0  0.51789 0.257882 0  0.53408 0.252026 0  0.560142 0.243543 0  0.545708 0.243474 0  0.547532 0.229019 0  0.55282 0.265323 0  0.398971 0.153424 0  0.400349 0.135684 0  0.410135 0.168145 0  0.428823 0.161323 0  0.415266 0.183779 0  0.329687 0.0810483 0  0.395312 0.0612217 0  0.373437 0.318952 0  0.439062 0.324017 0  0.561816 0.229354 0  0.585029 0.239287 0  0.431827 0.139854 0  0.446796 0.168929 0  0.351562 0.07598340000000001 0  0.395313 0.318944 0  0.54337 0.150762 0  0.460937 0.31948 0  0.418412 0.137529 0  0.428125 0.1 0  0.442783 0.152332 0  0.450742 0.134294 0  0.373437 0.0805201 0  0.384383 0.342558 0  0.482812 0.318952 0  0.429239 0.127457 0  0.444274 0.117405 0  0.426548 0.113815 0  0.49375 0.1 0  0.488954 0.113984 0  0.457973 0.121842 0  0.471621 0.137346 0  0.515625 0.325257 0  0.48125 0.41 0  0.417187 0.07598340000000001 0  0.496363 0.126778 0  0.479043 0.155715 0  0.439062 0.0805201 0  0.481795 0.126919 0  0.471875 0.1 0  0.489227 0.142159 0  0.515625 0.1 0  0.520062 0.147117 0  0.501244 0.161791 0  0.505431 0.112984 0  0.505344 0.14029 0  0.526563 0.119081 0  0.5181750000000001 0.131908 0  0.539868 0.136937 0  0.460937 0.108383 0  0.474242 0.114415 0  0.460937 0.0810483 0  0.487841 0.167168 0  0.526563 0.0612217 0  0.526563 0.106406 0  0.537619 0.112743 0  0.58125 0.1 0  0.559375 0.1 0  0.482812 0.08105569999999999 0  0.471883 0.0587655 0  0.570312 0.129396 0  0.548437 0.07598340000000001 0  0.504687 0.08105569999999999 0  0.49375 0.0470127 0  0.570312 0.112663 0  0.592798 0.12103 0  0.553986 0.12103 0  0.570312 0.0805201 0  0.48125 0 0  0.114787 0.2 0  0.160769 0.284765 0  0.175816 0.288361 0  0.162602 0.116048 0  0.154687 0.07598340000000001 0  0.176562 0.0805201 0  0.0598995 0.147547 0  0.307812 0.109924 0  0.291279 0.117157 0  0.278491 0.112989 0  0.285937 0.07598340000000001 0  0.307812 0.0805201 0  0.296928 0.196743 0  0.318141 0.218507 0  0.330208 0.227509 0  0.301397 0.225668 0  0.302706 0.241401 0  0.292574 0.21424 0  0.282762 0.230935 0  0.284351 0.244775 0  0.269553 0.23261 0  0.278572 0.217242 0  0.226924 0.342606 0  0.446928 0.185396 0  0.515625 0.3 0  0.504687 0.288879 0  0.515256 0.276534 0  0.529479 0.285328 0  0.58125 0.3 0  0.541969 0.272936 0  0.559375 0.3 0  0.556796 0.282529 0  0.543473 0.287206 0  0.581429 0.267774 0  0.566728 0.271171 0  0.570869 0.255585 0  0.577404 0.283865 0  0.603125 0.3 0  0.597531 0.28035 0  0.570312 0.338778 0  0.592188 0.292492 0  0.603513 0.256094 0  0.614063 0.286265 0  0.610329 0.27064 0  0.632708 0.251285 0  0.657223 0.261594 0  0.618789 0.257807 0  0.614188 0.22987 0  0.630935 0.265614 
[...]
<PointData  Vectors="v"> 
	<DataArray  type="Float64"  Name="v"  NumberOfComponents="3" format="ascii">
0.0 0.0 0.0 0.0 0.0 0.0 0.0 0.0 0.0 0.0 0.0 0.0 0.8015066868842947 -0.19399300835922093 0.0 0.8380158047970114 0.1870292200115078 0.0 0.6355384813853268 0.1876463809772645 0.0 0.6941802305957175 0.06815025061901098 0.0 0.0 0.0 0.0 0.0 0.0 0.0 0.0 0.0 0.0 0.0 0.0 0.0 0.0 0.0 0.0 0.0 0.0 0.0 0.0 0.0 0.0 0.0 0.0 0.0 0.0 0.0 0.0 0.0 0.0 0.0 0.0 0.0 0.0 0.0 0.0 0.0 0.0 0.0 0.0 0.0 0.0 0.0 0.0 0.0 0.0 0.0 0.0 0.0 0.0 0.0 0.0 0.0 0.0 0.0 0.0 0.0 0.0 0.0 0.0 0.0 0.0 0.0 0.0 0.0 0.0 0.0 0.0 0.0 0.0 0.0 0.0 0.0 0.0 0.0 0.0 0.0 0.0 0.0 0.0 0.0 0.0 0.0 0.0 0.0 0.0 0.0 0.0 0.0 0.0 0.0 0.0 0.0 0.0 0.0 0.0 0.0 0.0 0.0 0.0 0.7660207285610134 -0.018881528677695856 0.0 0.9240936990093335 0.21844830930220469 0.0 1.2481885795153878 -0.07400871757019331 0.0 0.0 0.0 0.0 1.325559254607704 -0.029142802717775567 0.0 1.2733065769894505 0.024925550191285534 0.0 0.0 0.0 0.0 0.0 0.0 0.0 1.0 0.0 0.0 0.0 0.0 0.0 0.0 0.0 0.0 0.0 0.0 0.0 0.852722511713667 -0.24117690783361337 0.0 1.1720128104915397 -0.29824115084312636 0.0 0.8660244518065146 0.20975088848572307 0.0 1.1604679794708976 0.2802513502536059 0.0 0.4329526141482131 -0.029365454360938424 0.0 0.2294944881357999 0.0020012045445238933 0.0 0.18837485934702064 -0.023406379940760932 0.0 -0.027702842280977552 -0.18209496230044445 0.0 -0.06393829592413228 -0.04202470818502124 0.0 0.3436087906329551 -0.310481431863995 0.0 0.8915648242405934 -0.6925784261455873 0.0 0.6662583662421587 -0.7193990711823894 0.0 1.2704662473204102 -0.614180760198056 0.0 0.3292873292620285 0.0059250410056310605 0.0 0.3307223133003864 0.24278477723343186 0.0 0.6454396890118438 0.6503409829609202 0.0 1.2206800868034107 0.585627150393578 0.0 0.3593130797545873 -0.021525424814680356 0.0 1.2660013856023 0.1457256148711005 0.0 -0.00036762168212678447 0.03418347965184343 0.0 1.292794257780245 -0.1532717255080354 0.0 -0.016623316112343262 -0.06093323900200985 0.0 -0.033097127084470206 -0.14967434358721493 0.0 1.2625733046788552 -0.4069527389431358 0.0 1.1556637579076616 -0.7492522898191869 0.0 0.864437658027989 0.7607006541505505 0.0 1.2583998661883689 0.39228488802216094 0.0 0.9647468440113603 0.1576049776804621 0.0 -0.03634648738053404 0.028065611924552203 0.0 0.956133469184845 -0.1632914690118162 0.0 -0.033829923862144735 -0.10571919309533058 0.0 -0.03211431086461597 -0.09049012228892239 0.0 1.0602698655104965 0.7171139919649019 0.0 0.44033708443348313 0.5072682134933892 0.0 0.6046095624861095 0.01909704325771092 0.0 0.11096381859865524 -0.03324277510026864 0.0 0.5789144519794287 -0.029298388234826146 0.0 0.12616196829660917 -0.10808485576097236 0.0 -0.1306753055872471 -0.17686061145779497 0.0 0.9632615251372161 0.27918425728178853 0.0 1.2428994892662129 0.2083815412219695 0.0 1.3199828847837012 0.16280082967191437 0.0 1.245210790229389 -0.23159312682945046 0.0 1.3361691280639316 -0.18385665627749614 0.0 1.3313260856262787 0.22247367045605815 0.0 1.349575136764722 -0.23969070524391847 0.0 0.462037913594945 -0.5783606080776847 0.0 0.810014096248225 -0.15479846159323168 0.0 0.6897074025953954 -0.44290405053462173 0.0 0.8854790356284513 0.5716841720367247 0.0 0.8018675366421725 0.12383638795178795 0.0 0.6794820754617169 0.3941232051369899 0.0 1.153674775711376 -0.03237108674522052 0.0 0.2718084822729408 -0.011603891561179457 0.0 0.2363991146464021 -0.03628527237118518 0.0 -0.06508744485073999 -0.20482354149950666 0.0 1.3041762751042005 0.4018731259850062 0.0 0.9633066188542706 0.033771246384043864 0.0 1.324813452038269 -0.4347747874849793 0.0 0.962416890575344 -0.05270484981549424 0.0 1.344145854001117 0.3313043364381073 0.0 1.2678875060119 0.3146328761055721 0.0 1.3608701079337109 -0.35468465334450894 0.0 1.2850393064518348 -0.3219708457315447 0.0 0.5932913719252534 -0.18482420625724383 0.0 0.8117789056027221 -0.34629347520299225 0.0 1.0262520810262 0.5769892321157397 0.0 0.5950710307081571 0.12604824402500173 0.0 0.8156740964171101 0.3085291907946714 0.0 0.9694609678315815 -0.04412793741465966 0.0 1.0215917676883246 -0.013969201416655534 0.0 0.03950822038969998 -0.19923325464764394 0.0 1.2828027394105026 0.07685541903329723 0.0 0.9445661675311079 -0.31073888581107906 0.0 1.3123858414455127 -0.08583302302954882 0.0 0.5189640774092309 -0.045268455590683286 0.0 0.5150297748751552 -0.02964388287958742 0.0 -0.04716374092214305 -0.23329825401769064 0.0 1.0551691634128826 0.2994503482027941 0.0 0.9482853963380065 0.3613525320612661 0.0 1.1058275716005546 0.013578858701408089 0.0 1.0074468768863145 -0.0348123966653074 0.0 1.265397506524794 0.23106781770483314 0.0 1.04790839211749 -0.3198294758503412 0.0 1.1196095043719416 -0.5692710341520328 0.0 0.9525901136371105 -0.39049365430209887 0.0 1.0281996127870443 -0.4343412573090982 0.0 0.9634526931988765 -0.5533634164442406 0.0 0.8853233780935507 -0.4158057101180113 0.0 1.3162294971774235 0.10085346541459919 0.0 1.340697503253322 -0.12259006316607166 0.0 0.8617316342079961 -0.2385495025478337 0.0 0.8936995811492167 -0.3125627247210077 0.0 0.8664899309617142 -0.306369029155703 0.0 0.8607117623281765 -0.25128887553127527 0.0 0.8639291365513952 -0.25173876769327214 0.0 0.9115549607419986 -0.3168948609956423 0.0 1.3096350018539324 0.18344420815370885 0.0 1.0659997598151052 -0.062110519787623324 0.0 1.3264680431368678 0.2509595126206974 0.0 1.3315407457433648 -0.19198741890064197 0.0 0.0 0.0 0.0 0.0 0.0 0.0 1.3365676188655429 -0.2665604536916381 0.0 0.7261716376039073 -0.2868506659037203 0.0 0.8296516522630701 -0.22291602483389095 0.0 0.8762834996086654 -0.11938094577466452 0.0 0.8690988319556465 -0.17181720159873418 0.0 0.9375 0.0 0.0 0.7500000000000001 0.0 0.0 0.7253452168108094 0.24312141370860388 0.0 0.8263925264341361 0.1811844365286837 0.0 0.7499999999999999 0.0 0.0 0.8715748473200564 0.1119639650146121 0.0 0.9299398118283337 0.03422667391103153 0.0 0.8514853867743747 0.030345608564409883 0.0 -0.032221745983533986 -0.22549925721529523 0.0 0.16495621010908795 -0.18429642313583436 0.0 1.1347191342161211 0.5169648049883971 0.0 1.0282788388757977 0.4391492222109043 0.0 0.881129651401233 0.22488346820563004 0.0 1.2610168018595194 0.013335371625499907 0.0 1.2117540463007066 -0.038624908798331144 0.0 0.35012231541425826 -0.1182570671979494 0.0 1.250490699769512 -0.01783319622609457 0.0 0.9023298463753103 -0.0836206738789402 0.0 1.2318231689454278 -0.026797603347536787 0.0 0.5948201036718272 -0.1424289839573402 0.0 0.6148971564851193 -0.1303408951611155 0.0 -0.087098605147291 -0.18333467865289357 0.0 1.0645302610544585 -0.08885960815852131 0.0 0.21055631474361267 -0.1618911139775727 0.0 0.031974407932116033 -0.16155718778672876 0.0 0.20334862965864273 -0.16630377919504205 0.0 0.7081461713253252 -0.09946780486327729 0.0 0.5395463449820049 -0.13716631420445752 0.0 1.1809165818539114 -0.04688715257520453 0.0 0.7092452745997488 -0.011120696000025989 0.0 1.321146428154442 -0.05631617125401294 0.0 0.19583761616924472 -0.13668466099451845 0.0 1.1155407156375765 0.07374226012280344 0.0 0.8838237694367991 0.16337759277337371 0.0 0.7000284812896725 -0.15766169827790824 0.0 1.0366650903287684 -0.02529802726384756 0.0 1.0271802919140283 -0.1754002638654997 0.0 0.8703268170121294 -0.18679294556293946 0.0 0.8791648983088268 -0.03724632583387797 0.0 0.551648560921114 -0.04111549357798834 0.0 0.40589672845606795 -0.08758060836030683 0.0 1.329442312965317 0.10180013002501657 0.0 0.5009835560379784 -0.05985134794139299 0.0 1.3375448056340664 0.029075121617198482 0.0 0.37094047127435903 -0.11557999910359157 0.0 0.859035276181227 0.02605023199759296 0.0 0.12614802349918583 -0.18772318972099017 0.0 0.8233472142845754 -0.002244985034164126 0.0 0.8813312238790963 0.27422987567217105 0.0 0.8838989046192621 0.3853357308094412 0.0 0.881734784149343 0.24147208736574216 0.0 0.9134835447673242 0.09817456691561133 0.0 0.8642659903002067 0.20234790638449868 0.0 0.9053424257235687 0.2774624248650987 0.0 0.8546602407852455 0.21000858315504878 0.0 0.7980195424190131 0.16223166015939233 0.0 0.8665860265018634 0.147031324740073 0.0 0.0 0.0 0.0 0.840069958134694 0.15993540017508912 0.0 0.8724695605899034 0.15456343372288384 0.0 1.0369566013248372 -0.015928746106312598 0.0 1.213821338249016 -0.05533932777427254 0.0 0.9755560238253431 -0.09716432728842192 0.0 0.5564286769738437 -0.006591174061530088 0.0 1.1656975355532464 0.0405105301019056 0.0 0.7197770193308576 -0.16795969147829565 0.0 1.1294060719555452 -0.0850153192581147 0.0 1.2906174427373578 0.09328319757955718 0.0 1.3165028422183938 0.1686986842643513 0.0 1.0326964941888606 0.11554993441369184 0.0 1.3496842039723806 0.1437105873279496 0.0 1.3203797488278066 0.20623199130394207 0.0 0.31721404636529815 0.04349166516594505 0.0 -0.23232131247593385 -0.23172573858518722 0.0 0.9455218818879518 0.30859089808545226 0.0 0.8939736094224885 -0.06410823227498398 0.0 0.3689843279519088 -0.07460045135137243 0.0 0.0 0.0 0.0 1.1196963878328476 -0.026855076032835542 0.0 1.167960081042311 -0.06501109680977528 0.0 1.1685928778203443 0.009953723735259984 0.0 1.0417401785344387 -0.04993192902192357 0.0 0.7583050808511321 0.01431533814294268 0.0 1.3225978994871008 0.2237437819346808 0.0 1.1015921217131306 0.2894798118211428 0.0 0.31258022012647024 -0.07671006656549623 0.0 -0.10457802391622074 -0.230274245884237 0.0 0.010783025800633912 -0.1787236539175071 0.0 -0.1967107218156043 -0.21649863184545035 0.0 1.129848333834408 0.1277641467110888 0.0 0.7662005269000928 0.16968675592492863 0.0 0.7755416612209631 0.1380079252663863 0.0 0.7848643450332717 0.0972669183412918 0.0 0.6149604928800037 0.09727506893098466 0.0 0.2889490767034386 -0.12291102224939747 0.0 -0.09018367197490004 -0.07330517217294419 0.0 0.30650877541992927 0.10135661232043601 0.0 0.9283737701071051 0.015769660272390927 0.0 0.0 0.0 0.0 1.0581902071922085 0.21169217081891184 0.0 1.2952315678438275 0.29931265986984723 0.0 -0.2012663649386139 -0.09046278309469577 0.0 1.0634956073422668 0.19238300377687492 0.0 0.9005676209621241 0.10180063990373413 0.0 1.1752166580964913 -0.013138833178182234 0.0 0.6420328346590614 0.09520003761667564 0.0 0.9955378228151415 0.39030287498935545 0.0 0.6683777562422466 0.2266281730042747 0.0 1.194738722348259 0.27566896348548214 0.0 -0.17039497885295043 -0.17566354038690965 0.0 0.045832392399540255 -0.0961044848113976 0.0 0.05031989508300418 0.03465396845668273 0.0 -0.23998417499222408 -0.1738811690072002 0.0 -0.159169726679902 0.15031149746247902 0.0 -0.13861811713440517 0.05042470381673472 0.0 0.33061567850128776 0.35948738411404657 0.0 -0.23480107537305703 0.008339116918512374 0.0 0.038888612832712485 0.21918608717379118 0.0 -0.09245749056038484 0.10112304196695217 0.0 -0.2533927282593873 -0.10413660572949011 0.0 0.06489979924900897 0.4250480966370028 0.0 -0.012411380100279824 0.31773707439006993 0.0 -0.1118149237275875 0.27717949816330595 0.0 0.0 0.0 0.0 0.9258421808974828 0.20890437757976318 0.0 0.951701977869017 0.03576257979336673 0.0 0.09387412757753477 -0.02087917257938137 0.0 0.7320368562281409 0.05874851175981759 0.0 1.1264292828287545 0.32611045094744945 0.0 1.2327756398422516 0.376806872226047 0.0 1.2731306233711583 0.2964693665364254 0.0 1.1359315341169198 -0.02858238403368135 0.0 0.6502199835419634 0.36686088806860434 0.0 -0.16225212123887706 0.1825537151832865 0.0 0.14268851765460744 0.4085264402331819 0.0 0.02461529666015048 0.18108241838386657 0.0 0.11858087955173374 0.30017783775237916 0.0 0.30854146326181725 0.1779483521329238 0.0 0.7535933791483704 0.10593617689589147 0.0 0.8821209514862978 0.03796021242715126 0.0 0.4564036968115262 0.1940915839287261 0.0 0.5596101708884742 0.09463191444737742 0.0 0.7221515679090348 0.09124194985840041 0.0 0.759730335072803 0.02538236700414447 0.0 0.44182804612755605 0.24321535219681767 0.0 1.2090472677229878 -0.02971289642845087 0.0 1.0366464810339264 0.008045460513965663 0.0 1.1537578579862424 -0.018415069616308608 0.0 1.0098828851294916 -0.0071081896148923445 0.0 0.18420425965826714 0.44725704773147285 0.0 1.0815184669670979 0.0009689448243623619 0.0 1.0203084418689787 -0.028325956784312992 0.0 0.8252118206324406 -0.1292435607454529 0.0 0.1854915265537154 0.5087281610769894 0.0 0.7313134941713376 0.11914241736265421 0.0 1.1697454143576929 -0.3119110568729693 0.0 0.3968448234614125 0.2969296896083741 0.0 0.16797370473562928 0.5163024036418772 0.0 1.2751782136361787 -0.14447013189640862 0.0 0.5678539634451074 0.15926741299373495 0.0 0.1303078902925945 0.5315505877417802 0.0 0.44099013434082485 0.48229550534690396 0.0 0.4044437164064232 0.29733066298357347 0.0 0.3090706781599472 0.3653681559974069 0.0 0.8766436956908733 0.009709766708497429 0.0 0.45309726030378616 0.21587365008729473 0.0 0.38624049575177627 0.008435232689938937 0.0 0.27751726594079656 0.5089359018730231 0.0 0.4828469206914564 0.13017917828297973 0.0 0.2616630710811005 0.3873252944586937 0.0 0.448843722369677 0.4338695774443289 0.0 0.8652002042116447 -0.10164984748136727 0.0 0.7624807130464917 0.4029715793586397 0.0 0.9624441044808209 -0.1677953172647737 0.0 0.1467949576099545 0.05998609517003025 0.0 0.6981928256702269 -0.040895385227134054 0.0 0.8688201889480126 0.23346232274079481 0.0 1.1899827588765688 0.3365512629683573 0.0 1.105475247156465 0.40503776475309766 0.0 1.2155159944145562 -0.14277783140446035 0.0 0.31620894248550646 0.22289389253019667 0.0 -0.022554574702466284 0.3981429623108876 0.0 0.08991184839528164 0.48243599724227587 0.0 0.46134226879771545 0.5144716051355183 0.0 0.04434539237775307 0.4735392967096952 0.0 0.683608273159653 0.13773720764400102 0.0 1.2748681157511155 -0.21693030628888296 0.0 0.9716490037844954 -0.010757307368463045 0.0 1.250844691617669 -0.22482213253809769 0.0 0.2626273931043972 0.39190905958893646 0.0 0.725932089186231 -0.036988968891420435 0.0 0.8037796029517533 -0.28993413664533857 0.0 0.9982111950601981 -0.31522991937533745 0.0 0.7005583794343183 -0.11556663149824 0.0 0.7706450977621883 -0.07817050281810403 0.0 0.5847627086601876 -0.09484806256514042 0.0 0.6580457107335594 -0.3213998340686962 0.0 0.6746064804878898 -0.2591990457958163 0.0 0.9621612975701198 -0.49389943740572095 0.0 0.9536486794747148 0.49758118383452105 0.0 1.1021049863786545 -0.11718018500233525 0.0 1.0510795905127894 -0.15177870610901967 0.0 1.0180588588851984 -0.00509783483743558 0.0 0.8154771561666798 0.006039244111182338 0.0 1.2679330238260724 -0.37802106441135197 0.0 1.289938181508605 -0.18202324329127811 0.0 1.2306716937893727 -0.1045820505061556 0.0 1.1551698994739632 -0.042804040427608 0.0 1.1789643467449142 -0.29259205004814676 0.0 1.176634895560408 -0.37990358569716864 0.0 1.1411827779979258 -0.4876701186820103 0.0 1.1303826564157535 -0.4338896027729333 0.0 0.9891498154824357 -0.39916433982571514 0.0 1.220028566400043 -0.4424534541021625 0.0 0.896987383902821 0.44931727739676863 0.0 1.1279906072451522 0.4472055537865587 0.0 0.6531819688542224 0.4791821641379551 0.0 0.7702504098715478 0.5156597089674317 0.0 0.38142776291160524 0.4583702749687508 0.0 1.1982757539895958 0.11928240253676871 0.0 0.88997595103251 0.1637577703426025 0.0 1.1389677936102922 -0.024153737623580876 0.0 1.1556649863902406 -0.0763786630344592 0.0 1.0408836514677733 -0.4837064138710078 0.0 1.0805923965848991 -0.4941995171605365 0.0 0.9772834805760204 0.45035319575743354 0.0 0.6353011231088779 0.49429906509827126 0.0 1.1217747886235827 0.15912913401153694 0.0 1.1482841937781663 -0.02592723714024163 0.0 0.36363688688348533 0.05838899109943398 0.0 1.1851201402215934 -0.1230635191143126 0.0 1.0552167692027452 0.458825667692085 0.0 1.0118130187196113 0.26919033148648064 0.0 0.8414452387041691 0.46688382295868835 0.0 0.9233656527686707 0.3599283913060383 0.0 1.1069048099638388 0.20313833249911872 0.0 1.0099506772895777 -0.036866605323239376 0.0 1.1753855953130976 -0.1723038004974383 0.0 1.038901163703026 0.39684085578010064 0.0 0.9721046643378791 0.3101602119873442 0.0 1.0589709994221692 0.339786547485999 0.0 0.8083691876758282 0.06439375440875231 0.0 0.8217727076353342 0.11377565935601053 0.0 0.9176731757570811 0.2754574080928478 0.0 0.8175164766994811 0.2765617542840363 0.0 1.051115857379005 -0.2141486781061476 0.0 0.0 0.0 0.0 0.9296259554372549 0.20079964949914175 0.0 0.7679768525103183 0.11813063861171319 0.0 0.6591167442678025 0.3232914531949644 0.0 0.8848634894264141 0.18215265918472479 0.0 0.819911133086594 0.18463231611527184 0.0 0.8563168524192181 0.14604964484468094 0.0 0.7178025728693416 0.2122062437507295 0.0 0.7812405362899149 -0.019081872133126506 0.0 0.46611452563635336 0.16544804819453363 0.0 0.43910392889026256 0.29811178904738816 0.0 0.7840023348177547 0.03987280840296494 0.0 0.6442493377402809 0.1485168909492972 0.0 0.7012681967714991 -0.013736902592749428 0.0 0.6406305627024608 0.061745224633784256 0.0 0.45760998513304696 0.038756586143414255 0.0 0.9040570385932499 0.21273406995026678 0.0 0.8605692607314023 0.17958022378972913 0.0 0.824529947802475 0.13535175278411446 0.0 0.4802604213767801 0.36604675457489944 0.0 0.6626244298173487 -0.03868966034879432 0.0 0.7639467557550969 -0.04591977051938035 0.0 0.712431087399694 -0.056836903614722836 0.0 0.7509480889145532 -0.12537250140800457 0.0 0.7552098154199448 -0.11310832301591182 0.0 0.7781087207475146 0.07173054731447705 0.0 0.6608518913086064 0.05962377351124886 0.0 0.46649583193444644 -0.09640378182066268 0.0 0.7630695994383948 -0.08459782852080336 0.0 0.7569330493274731 0.009363843464301592 0.0 0.5245152039307726 0.008585001122412953 0.0 0.6309269579823398 -0.10881455432920466 0.0 0.5529846031150535 -0.16252135198851841 0.0 0.567820576935047 -0.05491643246185227 0.0 0.8056728766829291 -0.10261918481374344 0.0 0.0 0.0 0.0 0.6501533427615128 -0.026673245373260657 0.0 1.0861437568452237 0.38770978754239616 0.0 1.1791039438211635 0.3616237222986697 0.0 1.116352559438885 -0.4079645517523505 0.0 0.8665982152711192 -0.20737158986288318 0.0 0.9814778083669239 -0.22169202175689567 0.0 0.8953374917064233 -0.08815444104298555 0.0 1.3546785984048448 0.05861935843889172 0.0 1.2821118939815335 0.014099792944150586 0.0 1.321234203628574 -0.017626695865054894 0.0 1.1714696723418576 0.016906063809044455 0.0 1.2060697401243412 0.06758213527445768 0.0 -0.13852899772651048 -0.2227390959687326 0.0 -0.220944722845964 -0.20928057966566083 0.0 -0.18626954121702935 -0.19329209687170576 0.0 -0.15094209006045747 -0.16502960211794293 0.0 0.025448066486002292 -0.14156264121287074 0.0 -0.16798425235921505 -0.16209506353946626 0.0 -0.08297002557260623 -0.09396132410691393 0.0 0.09753282845580291 -0.08336549383293727 0.0 -0.04931996526597187 -0.03469865536240686 0.0 -0.11900359067992765 -0.10567274696922957 0.0 0.954172327563417 0.09121314086628816 0.0 0.40417411621992516 0.5138680691580778 0.0 1.2344113151941014 -0.27856310396705886 0.0 1.2964552115253658 -0.2709184106991839 0.0 1.2889111644532085 -0.31296230880433334 0.0 1.262271148346107 -0.3513564390197769 0.0 0.9954050834584858 -0.26390583406644674 0.0 1.2486642816952849 -0.4057180623898361 0.0 1.0824244435135353 -0.3048210417158743 0.0 1.1760416848790962 -0.3796444478915863 0.0 1.2100062698224956 -0.36025956757606753 0.0 1.1116754206742012 -0.40114908237563374 0.0 1.1671090478119175 -0.4165168767142185 0.0 1.1599771452951975 -0.4706457159503195 0.0 1.0862068938687919 -0.3487690442560967 0.0 0.904196218119381 -0.2038858238308625 0.0 1.0098450080401367 -0.3020212049735765 0.0 0.715922343152419 -0.14405988341159467 0.0 0.9873855592214793 -0.2691649921410272 0.0 1.037626570762125 -0.37753658116186867 0.0 0.9257247527962111 -0.21811035135432155 0.0 0.9872420498203013 -0.2965966578609159 0.0 0.9370740724686156 -0.27402245605026027 0.0 0.8353219266736559 -0.14629216254721228 0.0 0.977416461412121 -0.30930057108819425 0.0 0.9895731582037571 -0.417429017799757 0.0 0.9191156172746208 -0.2308564607317671 0.0 0.98042441127191 -0.3548326001408181 0.0 0.7025594441894575 0.006192048305578182 0.0 0.9208258199063274 -0.31591678787847455 0.0 0.5798696631234002 0.01159446288875789 0.0 0.8681826211944154 -0.16325375723788932 0.0 0.