<?xml version="1.0"?>
<VTKFile type="UnstructuredGrid"  version="0.1"  >
<UnstructuredGrid>
<Piece  NumberOfPoints="1289" NumberOfCells="2413">
<Points>
<DataArray  type="Float64"  NumberOfComponents="3"  format="ascii">0 0 0  0 0.41 0  2.2 0.41 0  2.2 0 0  0.1 0.1 0  0.1 0.3 0  0.8 0.3 0  0.8 0.1 0  0.25 0.2 0  0.248976 0.210065 0  0.245948 0.219718 0  0.241038 0.228563 0  0.234448 0.23624 0  0.226448 0.242432 0  0.217365 0.246888 0  0.207571 0.249423 0  0.197468 0.249936 0  0.187467 0.248404 0  0.17798 0.24489 0  0.169395 0.239539 0  0.162062 0.232569 0  0.156283 0.224265 0  0.152293 0.214968 0  0.150257 0.205058 0  0.150257 0.194942 0  0.152293 0.185032 0  0.156283 0.175735 0  0.162062 0.167431 0  0.169395 0.160461 0  0.17798 0.15511 0  0.187467 0.151596 0  0.197468 0.150064 0  0.207571 0.150577 0  0.217365 0.153112 0  0.226448 0.157568 0  0.234448 0.16376 0  0.241038 0.171437 0  0.245948 0.180282 0  0.248976 0.189935 0  1.1 0 0  1.1 0.41 0  0.1 0.2 0  0.45 0.1 0  0.45 0.3 0  0.55 0 0  0.275 0.1 0  0.275 0.3 0  0.275 0 0  0.55 0.41 0  0 0.205 0  0.825 0 0  0.825 0.41 0  0.275 0.41 0  0.1 0.15 0  0.1875 0.1 0  0.1 0.25 0  0.1875 0.3 0  0.132322 0.2 0  0.241426 0.253518 0  0.241426 0.146482 0  0.264574 0.17974 0  0.264574 0.22026 0  0.138434 0.187348 0  0.153372 0.150948 0  0.148413 0.164094 0  0.176495 0.136535 0  0.22768 0.143571 0  0.138434 0.212652 0  0.148413 0.235906 0  0.176495 0.263465 0  0.22768 0.256429 0  0.23125 0.3 0  0.24769 0.24094 0  0.23125 0.1 0  0.24769 0.15906 0  0.26253 0.193641 0  0.190482 0.137872 0  0.166753 0.146661 0  0.157737 0.244461 0  0.190482 0.262128 0  0.203107 0.261264 0  0.253635 0.22977 0  0.203107 0.138736 0  0.253635 0.17023 0  0.261028 0.206206 0  0.167707 0.251809 0  0.143629 0.224191 0  0.215302 0.2591 0  0.270465 0.245894 0  0.215302 0.1409 0  0.270465 0.154106 0  0.284052 0.202587 0  0.14375 0.3 0  0.209375 0.3 0  0.225966 0.278501 0  0.209375 0.1 0  0.225966 0.121499 0  0.211613 0.273759 0  0.211613 0.126241 0  0.143629 0.175809 0  0.1 0.175 0  0.133484 0.164832 0  0.144491 0.249539 0  0.1 0.225 0  0.133484 0.235168 0  0.3625 0.3 0  0.25691 0.253381 0  0.25691 0.146619 0  0.277205 0.188698 0  0.184724 0.275712 0  0.237372 0.268285 0  0.184724 0.124288 0  0.237372 0.131715 0  0.197578 0.273149 0  0.193656 0.286994 0  0.197578 0.126851 0  0.193656 0.113006 0  0.122953 0.187671 0  0.118362 0.153758 0  0.155372 0.258107 0  0.122953 0.212329 0  0.118362 0.246242 0  0.276394 0.27264 0  0.276394 0.12736 0  0.280965 0.170013 0  0.253125 0.3 0  0.14375 0.1 0  0.253125 0.1 0  0.269489 0.26014 0  0.269489 0.13986 0  0.303639 0.184297 0  0.165625 0.3 0  0.134742 0.273113 0  0.257831 0.274737 0  0.255279 0.128499 0  0.3625 0.1 0  0.165625 0.1 0  0.162031 0.132368 0  0.134955 0.126405 0  0.149334 0.125568 0  0.142936 0.139597 0  0.12695 0.140259 0  0.242514 0.285501 0  0.242514 0.114499 0  0.1 0.125 0  0.117483 0.12555 0  0.11154 0.139776 0  0.121875 0.1 0  0.109143 0.1125 0  0.126805 0.114 0  0.220313 0.29129 0  0.351562 0.287369 0  0.207222 0.2866 0  0.220312 0.10871 0  0.1375 0 0  0.20625 0 0  0.207222 0.1134 0  0.11722 0.17118 0  0.1 0.1625 0  0.0778409 0.16875 0  0.0862762 0.15625 0  0 0.15375 0  0 0.1025 0  0.11722 0.22882 0  0.1 0.2375 0  0 0.3075 0  0.0862762 0.23125 0  0.0598995 0.222547 0  0.0860223 0.2125 0  0.289584 0.181469 0  0.300267 0.16446 0  0.163832 0.269071 0  0.149597 0.273325 0  0.1 0.275 0  0.268498 0.285953 0  0.31875 0.3 0  0.294154 0.254672 0  0.296875 0.3 0  0.293558 0.271845 0  0.285095 0.286799 0  0.324298 0.264316 0  0.307866 0.263745 0  0.317093 0.234901 0  0.315485 0.281219 0  0.316547 0.250625 0  0.344693 0.243731 0  0.331592 0.251147 0  0.35129 0.270663 0  0.338689 0.263683 0  0.340625 0.3 0  0.249849 0.264383 0  0.265097 0.11422 0  0.284688 0.156136 0  0.242188 0.324017 0  0.0856613 0.2625 0  0.132812 0.0612217 0  0.264062 0.0612217 0  0.198437 0.07598340000000001 0  0.0860223 0.1375 0  0.0794526 0.191089 0  0.285228 0.140397 0  0.298655 0.148737 0  0.31875 0.1 0  0.327335 0.15374 0  0.296875 0.1 0  0.312289 0.155283 0  0.313348 0.135607 0  0.321802 0.173916 0  0.298433 0.134116 0  0.112124 0.2625 0  0.127526 0.259083 0  0.121875 0.3 0  0.0682687 0.241503 0  0.1 0.2875 0  0.117762 0.28125 0  0.107813 0.3 0  0.103906 0.313849 0  0.0778409 0.28125 0  0.1375 0.41 0  0.0862762 0.29375 0  0.08886860000000001 0.24375 0  0.307812 0.338778 0  0.307812 0.292227 0  0.33216 0.279164 0  0.387888 0.266414 0  0.264063 0.31948 0  0.110937 0.07598340000000001 0  0.242188 0.07598340000000001 0  0.319914 0.11839 0  0.340625 0.1 0  0.334448 0.133793 0  0.329687 0.108539 0  0.346259 0.118491 0  0.360334 0.173636 0  0.327539 0.205033 0  0.132812 0.288712 0  0.362436 0.278836 0  0.368105 0.259418 0  0.4125 0.41 0  0.329687 0.324017 0  0.329687 0.292306 0  0.285938 0.318952 0  0.417187 0.338778 0  0.324481 0.14148 0  0.351562 0.106771 0  0.40625 0.1 0  0.341028 0.168342 0  0.319221 0.190479 0  0.335292 0.184501 0  0.305563 0.20794 0  0.220313 0.31948 0  0.132812 0.332772 0  0.0865876 0.311259 0  0.0598995 0.302453 0  0.0906541 0.343255 0  0.353543 0.255837 0  0.36574 0.237633 0  0.405007 0.254279 0  0.275795 0.352123 0  0.4125 0 0  0.35493 0.137394 0  0.366563 0.120618 0  0.35917 0.205246 0  0.198438 0.318952 0  0.0626109 0.263892 0  0.40625 0.3 0  0.354809 0.155936 0  0.386512 0.146872 0  0.373101 0.159939 0  0.384375 0.1 0  0.343394 0.19929 0  0.350682 0.185683 0  0.368101 0.189748 0  0.344016 0.221511 0  0.391108 0.213329 0  0.376279 0.204783 0  0.398843 0.182768 0  0.375804 0.222746 0  0.390665 0.196958 0  0.394004 0.23518 0  0.359883 0.222828 0  0.419908 0.204359 0  0.404243 0.204783 0  0.412615 0.224526 0  0.20625 0.41 0  0.165625 0.325257 0  0.0347982 0.244954 0  0.379558 0.247154 0  0.34165 0.147603 0  0.372264 0.136992 0  0.388988 0.121989 0  0.373437 0.108554 0  0.351562 0.31948 0  0.391367 0.16527 0  0.399572 0.223324 0  0.452011 0.227371 0  0.40877 0.239392 0  0.431491 0.237337 0  0.421224 0.250459 0  0.449619 0.262098 0  0.418865 0.276779 0  0.437063 0.252274 0  0.415673 0.263227 0  0.430988 0.266772 0  0.402767 0.273419 0  0.452967 0.244883 0  0.428125 0.3 0  0.408502 0.286186 0  0.384375 0.3 0  0.392267 0.285807 0  0.465927 0.219339 0  0.43489 0.283846 0  0.376424 0.286289 0  0.625 0.3 0  0.473533 0.205186 0  0.461713 0.255517 0  0.5375 0.3 0  0.465725 0.235405 0  0.44631 0.201425 0  0.471875 0.3 0  0.494307 0.227729 0  0.459448 0.206736 0  0.462294 0.180792 0  0.478933 0.227536 0  0.486793 0.21381 0  0.486322 0.251373 0  0.50065 0.215318 0  0.54005 0.175389 0  0.474633 0.189893 0  0.512916 0.208697 0  0.49531 0.199967 0  0.475889 0.175275 0  0.625 0.1 0  0.459311 0.153933 0  0.513645 0.242704 0  0.392892 0.248539 0  0.374815 0.271913 0  0.365974 0.14871 0  0.395312 0.109184 0  0.417061 0.123981 0  0.483196 0.277003 0  0.381967 0.179632 0  0.429898 0.219374 0  0.433473 0.206165 0  0.43149 0.181038 0  0.444208 0.215487 0  0.472985 0.247309 0  0.49375 0.3 0  0.475579 0.262714 0  0.49916 0.274293 0  0.501175 0.184809 0  0.514164 0.225681 0  0.543648 0.214977 0  0.5341630000000001 0.23481 0  0.527396 0.216171 0  0.5375 0.1 0  0.534548 0.202315 0  0.561545 0.192513 0  0.5494289999999999 0.201221 0  0.570923 0.218346 0  0.412582 0.149833 0  0.489327 0.264745 0  0.502439 0.254775 0  0.462391 0.271166 0  0.496775 0.241732 0  0.5294410000000001 0.268606 0  0.482812 0.291099 0  0.46879 0.285038 0  0.452663 0.284065 0  0.51789 0.257882 0  0.53408 0.252026 0  0.560142 0.243543 0  0.545708 0.243474 0  0.547532 0.229019 0  0.55282 0.265323 0  0.398971 0.153424 0  0.400349 0.135684 0  0.410135 0.168145 0  0.428823 0.161323 0  0.415266 0.183779 0  0.329687 0.0810483 0  0.395312 0.0612217 0  0.373437 0.318952 0  0.439062 0.324017 0  0.561816 0.229354 0  0.585029 0.239287 0  0.431827 0.139854 0  0.446796 0.168929 0  0.351562 0.07598340000000001 0  0.395313 0.318944 0  0.54337 0.150762 0  0.460937 0.31948 0  0.418412 0.137529 0  0.428125 0.1 0  0.442783 0.152332 0  0.450742 0.134294 0  0.373437 0.0805201 0  0.384383 0.342558 0  0.482812 0.318952 0  0.429239 0.127457 0  0.444274 0.117405 0  0.426548 0.113815 0  0.49375 0.1 0  0.488954 0.113984 0  0.457973 0.121842 0  0.471621 0.137346 0  0.515625 0.325257 0  0.48125 0.41 0  0.417187 0.07598340000000001 0  0.496363 0.126778 0  0.479043 0.155715 0  0.439062 0.0805201 0  0.481795 0.126919 0  0.471875 0.1 0  0.489227 0.142159 0  0.515625 0.1 0  0.520062 0.147117 0  0.501244 0.161791 0  0.505431 0.112984 0  0.505344 0.14029 0  0.526563 0.119081 0  0.5181750000000001 0.131908 0  0.539868 0.136937 0  0.460937 0.108383 0  0.474242 0.114415 0  0.460937 0.0810483 0  0.487841 0.167168 0  0.526563 0.0612217 0  0.526563 0.106406 0  0.537619 0.112743 0  0.58125 0.1 0  0.559375 0.1 0  0.482812 0.08105569999999999 0  0.471883 0.0587655 0  0.570312 0.129396 0  0.548437 0.07598340000000001 0  0.504687 0.08105569999999999 0  0.49375 0.0470127 0  0.570312 0.112663 0  0.592798 0.12103 0  0.553986 0.12103 0  0.570312 0.0805201 0  0.48125 0 0  0.114787 0.2 0  0.160769 0.284765 0  0.175816 0.288361 0  0.162602 0.116048 0  0.154687 0.07598340000000001 0  0.176562 0.0805201 0  0.0598995 0.147547 0  0.307812 0.109924 0  0.291279 0.117157 0  0.278491 0.112989 0  0.285937 0.07598340000000001 0  0.307812 0.0805201 0  0.296928 0.196743 0  0.318141 0.218507 0  0.330208 0.227509 0  0.301397 0.225668 0  0.302706 0.241401 0  0.292574 0.21424 0  0.282762 0.230935 0  0.284351 0.244775 0  0.269553 0.23261 0  0.278572 0.217242 0  0.226924 0.342606 0  0.446928 0.185396 0  0.515625 0.3 0  0.504687 0.288879 0  0.515256 0.276534 0  0.529479 0.285328 0  0.58125 0.3 0  0.541969 0.272936 0  0.559375 0.3 0  0.556796 0.282529 0  0.543473 0.287206 0  0.581429 0.267774 0  0.566728 0.271171 0  0.570869 0.255585 0  0.577404 0.283865 0  0.603125 0.3 0  0.597531 0.28035 0  0.570312 0.338778 0  0.592188 0.292492 0  0.603513 0.256094 0  0.614063 0.286265 0  0.610329 0.27064 0  0.632708 0.251285 0  0.657223 0.261594 0  0.618789 0.257807 0  0.614188 0.22987 0  0.630935 0.265614 
[...]
<PointData  Vectors="v"> 
	<DataArray  type="Float64"  Name="v"  NumberOfComponents="3" format="ascii">
0.0 0.0 0.0 0.0 0.0 0.0 0.0 0.0 0.0 0.0 0.0 0.0 0.7930890769097121 -0.18012711426456146 0.0 0.8469143525980203 0.20081559317983075 0.0 0.49613981371037985 -0.027682781850653048 0.0 0.9840684553125102 0.1768009810729293 0.0 0.0 0.0 0.0 0.0 0.0 0.0 0.0 0.0 0.0 0.0 0.0 0.0 0.0 0.0 0.0 0.0 0.0 0.0 0.0 0.0 0.0 0.0 0.0 0.0 0.0 0.0 0.0 0.0 0.0 0.0 0.0 0.0 0.0 0.0 0.0 0.0 0.0 0.0 0.0 0.0 0.0 0.0 0.0 0.0 0.0 0.0 0.0 0.0 0.0 0.0 0.0 0.0 0.0 0.0 0.0 0.0 0.0 0.0 0.0 0.0 0.0 0.0 0.0 0.0 0.0 0.0 0.0 0.0 0.0 0.0 0.0 0.0 0.0 0.0 0.0 0.0 0.0 0.0 0.0 0.0 0.0 0.0 0.0 0.0 0.0 0.0 0.0 0.0 0.0 0.0 0.0 0.0 0.0 0.0 0.0 0.0 0.0 0.0 0.0 0.766220460966034 0.010015400171836995 0.0 1.0930064378927113 0.3220697510567249 0.0 0.9972956570796071 0.03955103293835235 0.0 0.0 0.0 0.0 1.2965357054665452 -0.061159956828524806 0.0 1.3046322666263392 -0.016611624343101757 0.0 0.0 0.0 0.0 0.0 0.0 0.0 1.0 0.0 0.0 0.0 0.0 0.0 0.0 0.0 0.0 0.0 0.0 0.0 0.8444557561358242 -0.21735632475517758 0.0 1.1469038204391613 -0.29625240414910814 0.0 0.8743694025070876 0.2332335637548564 0.0 1.1857307694626498 0.2798461957673665 0.0 0.43365763522691 0.006209953299367595 0.0 0.25452989643889434 0.007899048979573067 0.0 0.17078520178388937 -0.015568308377958563 0.0 -0.042798116221976455 -0.0472890234862158 0.0 -0.05802100912816689 0.11150085168660849 0.0 0.3369912601798006 -0.2713296902090826 0.0 0.869064495171992 -0.6654361441678004 0.0 0.6470350765059276 -0.6854762479867113 0.0 1.2388390330184946 -0.5988648637394429 0.0 0.3044969117146526 0.004655769914725996 0.0 0.33802379259872156 0.2821136207180422 0.0 0.6647795065283385 0.684838003236146 0.0 1.2523527826927159 0.6001780265825317 0.0 0.39201189542724685 -0.02453574154780021 0.0 1.2920955936145893 0.12743511181348544 0.0 0.004485392640452144 0.07198501857009783 0.0 1.2666460622649107 -0.1666278991239972 0.0 -0.020149393359955314 -0.029157596626671074 0.0 -0.0398847761718324 0.015479491674765733 0.0 1.221335116684998 -0.3965691902936483 0.0 1.1228699578286125 -0.7254522714937494 0.0 0.8914059302310742 0.7910831652771456 0.0 1.3037348052960471 0.40242431359248887 0.0 1.0107927356570479 0.1608675031118231 0.0 -0.03791201601969315 0.11882221447992707 0.0 0.9162662594280683 -0.15968643931733756 0.0 -0.030608104889549816 -0.03342543364474689 0.0 -0.041614408462330096 0.08087486862529544 0.0 1.0912790611403704 0.7410140003730689 0.0 0.4566311613719986 0.5459785239319724 0.0 0.6454742209236255 0.017425670465572068 0.0 0.1892086112634106 0.04021371793845878 0.0 0.5458941302771345 -0.029939340382969127 0.0 0.07081318076075621 -0.04116052595546346 0.0 -0.14674607763655861 -0.024252910433194712 0.0 0.9809072165246823 0.2902293127339775 0.0 1.2697630730935114 0.1979176355278101 0.0 1.3647420697549786 0.15025530156545314 0.0 1.2192130976673339 -0.2375953139941668 0.0 1.2946881218424076 -0.19176703850210186 0.0 1.3766779612608744 0.21555364297750199 0.0 1.3074320415702172 -0.24325843436223052 0.0 0.4459601863685209 -0.5396980790863398 0.0 0.8049718391236378 -0.1264423943157205 0.0 0.6760687889513477 -0.4084665893126723 0.0 0.9075479293623092 0.5995429035582922 0.0 0.8073946732440989 0.1519023865175088 0.0 0.6941578176516154 0.4290167750812471 0.0 1.1022538271215059 -0.1546132948323813 0.0 0.3220950827160165 0.016735435183134948 0.0 0.19756185884790456 -0.010515904994529082 0.0 -0.09951403874358687 -0.052724799019095527 0.0 1.3380156479787255 0.405187279328347 0.0 1.0329596373067476 0.02811496170396251 0.0 1.2926253850590264 -0.4294042422404764 0.0 0.903260179610636 -0.05535190129104285 0.0 1.382015371831504 0.32896566225629736 0.0 1.297942374121982 0.31282076406041937 0.0 1.3255419729647373 -0.3542373681182963 0.0 1.2559842471366875 -0.32194723972076217 0.0 0.5876773058802331 -0.1492690102601896 0.0 0.8003667012801798 -0.3182140308372554 0.0 1.0534854686692838 0.5988012619884248 0.0 0.6009308139761292 0.16157901097710964 0.0 0.8274788503202242 0.33652185293067516 0.0 1.093270678787171 -0.05469167230371874 0.0 0.914320692388943 -0.0196452289127972 0.0 -0.02952536850424243 -0.09358982524401774 0.0 1.3109386206189777 0.04896258629209717 0.0 0.9272291597649159 -0.2978070666212562 0.0 1.2858855477135527 -0.10730212601719083 0.0 0.6192839894480757 -0.02177936087525486 0.0 0.43133302040626603 -0.007368425626860806 0.0 -0.13991701288207556 -0.15942151646516092 0.0 1.0771474872023064 0.3056088141203044 0.0 0.9661320189497409 0.3803754081636324 0.0 1.192377479353348 0.0036675514816502373 0.0 0.9340060878086092 -0.038410531720692406 0.0 1.3237681304722073 0.13359317092925388 0.0 1.0259264303139013 -0.3117785266263296 0.0 1.093014943341607 -0.5517280825721972 0.0 0.9348255743555492 -0.3709803627372349 0.0 1.006344046412736 -0.4175137458441927 0.0 0.94221712464705 -0.5289288464086549 0.0 0.870233833446992 -0.39099782963001 0.0 1.3573745192900641 0.08010900994561582 0.0 1.3019308255854274 -0.13702882725143917 0.0 0.8525865656549714 -0.21967529946359413 0.0 0.8804546207273019 -0.2927440016959829 0.0 0.8550402697680397 -0.28359262190615664 0.0 0.8474514234158377 -0.23728017149160957 0.0 0.8527071057012391 -0.23516905564657112 0.0 0.8966100619631006 -0.2998756819971594 0.0 1.3392343719004445 0.1684982585781163 0.0 1.1287324829988472 -0.2085920472050547 0.0 1.358647570793052 0.24292428105031366 0.0 1.302862158737008 -0.20293978992375325 0.0 0.0 0.0 0.0 0.0 0.0 0.0 1.3063866450568002 -0.27147953580183454 0.0 0.7182935918464539 -0.2553728678811613 0.0 0.8225574931339161 -0.19709035969268335 0.0 0.8731778253498655 -0.09776567374477625 0.0 0.8639135602355823 -0.14991571029574408 0.0 0.9375 0.0 0.0 0.7500000000000001 0.0 0.0 0.7334359187929496 0.27452699449624585 0.0 0.833614569155167 0.2070472671487441 0.0 0.7499999999999999 0.0 0.0 0.8760315448968329 0.13568269447269168 0.0 0.9316667058147123 0.05047332605729105 0.0 0.8529479050310734 0.05528055499351921 0.0 -0.10126185059636987 -0.10854397212334335 0.0 0.05158892660147997 -0.1275410929499441 0.0 1.1628437909244598 0.5326257268173373 0.0 1.0510547140584956 0.4566955503257353 0.0 0.8902787171706923 0.24374566543965534 0.0 1.3256460289174303 -0.015749482319969425 0.0 1.233375055316629 -0.12590057293130308 0.0 0.5386669256313293 -0.08699529171684049 0.0 1.2828406000173542 -0.08050667352914523 0.0 1.074759693862782 -0.11161862508832664 0.0 1.3111124880594773 -0.06958554482141777 0.0 0.8791400672872935 -0.23345130376969167 0.0 0.8570986707029651 -0.16715377450721564 0.0 0.09614837572321064 -0.17442424898745965 0.0 1.211792595817324 -0.17506876347630393 0.0 0.4891218877365265 -0.18568267482759135 0.0 0.3194281959011141 -0.311563144744634 0.0 0.5226200377018038 -0.25429630704180106 0.0 0.9559722864264204 -0.27090366779372405 0.0 0.846404059034495 -0.27653269381008666 0.0 1.180201879569273 -0.1583788824188035 0.0 0.7838401494212981 -0.011240560803027443 0.0 1.2663565324573305 -0.0730813891126897 0.0 0.09256983018197351 -0.06995089840853055 0.0 1.1318266669061166 0.05011353120384849 0.0 0.8899718223276623 0.18220058301869646 0.0 0.6871607984277278 -0.1505548468026186 0.0 1.027013768195912 -0.0452864024494835 0.0 1.0064775434402848 -0.17857608936876224 0.0 0.8640266947602333 -0.168190067554545 0.0 0.8785789927099272 -0.014175136622077224 0.0 0.4269041075424118 -0.018815143543496036 0.0 0.2603828788211859 -0.06661772252856969 0.0 1.3086385509095713 0.027059160797698725 0.0 0.3173849087043513 -0.13299400871059897 0.0 1.304875124305306 -0.01911545814718067 0.0 0.21569723950857653 -0.1231420670158483 0.0 0.6520425704745165 -0.020093290100147727 0.0 -0.013514721528517178 -0.2187528512619089 0.0 0.656834023002146 -0.016181820120331637 0.0 0.8932531355047537 0.2962192983117397 0.0 0.8993602596566702 0.4102571075294516 0.0 0.8944614681172278 0.2552593056612948 0.0 0.9166653101275584 0.11608794900054681 0.0 0.8731722989418647 0.21784777588417834 0.0 0.9185236657957523 0.2956813672604827 0.0 0.8650000241475497 0.22414666775170675 0.0 0.8069665343821188 0.17322563083358752 0.0 0.8723824047110176 0.1615850389985142 0.0 0.0 0.0 0.0 0.8466029904850303 0.17360334697115865 0.0 0.8782287948195278 0.1767038304661981 0.0 1.0182801782228275 -0.06519727042611963 0.0 1.278189657138773 -0.13410263283790255 0.0 1.1425282032195532 -0.21949021599507804 0.0 0.719990663198997 -0.23273364733782684 0.0 1.1808195703481754 0.006512893421363736 0.0 0.7102734995377527 -0.15752923183726977 0.0 1.111040146791948 -0.10108864290800425 0.0 1.1611464929641186 0.009172450077775368 0.0 1.323234498746548 0.07578090279312613 0.0 0.8006829663337612 -0.0116093809354871 0.0 1.3031623583943015 0.04406415267986837 0.0 1.219645405851384 0.0646821564151416 0.0 0.175086168423755 -0.2429421235856688 0.0 -0.2581053649444466 -0.2670904652776441 0.0 0.9619480282472156 0.3240411056609465 0.0 1.0242175230368065 -0.2350939753314347 0.0 0.6588406944218678 -0.30382718433373246 0.0 0.0 0.0 0.0 1.0832729313007683 -0.1020274279091758 0.0 1.2219648548589785 -0.1825449433718944 0.0 1.178848206791467 -0.03710515254324919 0.0 0.9053520586364302 -0.030609707369730513 0.0 0.5413096776578598 -0.06198605432387344 0.0 1.3265700577583914 0.10606217518682826 0.0 1.2573359966294677 0.2656156922005642 0.0 0.15169248424436926 -0.23047179429036815 0.0 -0.19158426249599914 -0.22048570665716516 0.0 -0.1223089467646281 -0.2809972703021427 0.0 -0.20504553396477002 -0.1218789450815475 0.0 1.1509693918741228 0.1128289853142518 0.0 0.7778771367420606 0.17699118588664955 0.0 0.7814971311396972 0.14894669634492047 0.0 0.7880344174952191 0.10684203974902924 0.0 0.6207847711658959 0.10439112753060542 0.0 0.6198581810191058 -0.31676135461327876 0.0 0.11747736732535366 -0.3779509752914179 0.0 0.348333820079294 -0.22860561063327778 0.0 0.9231855572910926 -0.01317389299340618 0.0 0.0 0.0 0.0 0.8330427419060349 0.004344183187523584 0.0 1.2442434566946095 0.12885578090102684 0.0 -0.25402064525711116 -0.39911310426382424 0.0 1.0839508031642804 0.18651043470111742 0.0 0.9037774351756063 0.11579946331191797 0.0 1.0075191753737474 -0.0684837144092056 0.0 0.45823254755537646 -0.1327419894957027 0.0 0.8643799464967303 0.0874646408233391 0.0 0.5213660370508508 -0.09568813052360342 0.0 1.3070478800477423 0.20503593846114543 0.0 -0.23723323983006434 -0.33531371713928976 0.0 -0.08310221460663346 -0.3191711994403586 0.0 -0.06154439578573726 -0.3226920654588492 0.0 -0.1396386607973639 -0.34292007519227025 0.0 -0.17108941830039134 -0.34737507381702915 0.0 -0.18630495052004944 -0.3805522456783941 0.0 0.28742416398568504 -0.08577296901935563 0.0 -0.16105455594311255 -0.41505481131386096 0.0 -0.01358942087597872 -0.2537735520755048 0.0 -0.019672836935235676 -0.35271276148984804 0.0 -0.14956999093975096 -0.39752920516018564 0.0 0.09820288799303444 -0.01765409280480285 0.0 -0.024473836983511774 -0.18734824671263528 0.0 -0.10327598708825558 -0.22674519191387843 0.0 0.0 0.0 0.0 0.943319896401263 0.2121341601253686 0.0 0.9521819938552701 0.04451210546801077 0.0 0.30923149854151843 -0.33792089315739665 0.0 0.51927457340224 -0.09494741810926016 0.0 0.9682595394981272 0.07939770223151664 0.0 1.293595675185783 0.22641104571633178 0.0 1.3378376686869653 0.17989977212502717 0.0 1.0714876757029972 -0.11288098309641448 0.0 0.5632870872449705 -0.015133116309473293 0.0 -0.14492127281346945 -0.32604912293295824 0.0 0.11135859609699404 0.1505903080787663 0.0 0.020203284729174445 -0.27429121970409076 0.0 -0.002135741732489325 -0.09753360815862283 0.0 0.1936745310334095 -0.1714595691470016 0.0 0.3682660117158412 0.023878806506634313 0.0 0.7777553597322089 -0.07409558972672411 0.0 0.18931892020656524 -0.06770558682863136 0.0 0.5064130552023377 -0.1442273479754407 0.0 0.5268732647372645 -0.06851409479899223 0.0 0.7830507500899221 -0.1498540110878103 0.0 0.114210527151814 0.06201788225572244 0.0 0.9919276554707412 -0.015316722655981378 0.0 0.9321893303558484 -0.083892414327251 0.0 1.0490707388213958 -0.12231779631670552 0.0 0.9709022107700037 -0.14237156166986206 0.0 0.26961539665188616 0.3149312800084786 0.0 0.8461759101905438 0.0002364895651096517 0.0 1.0322456866553642 -0.1813023927091101 0.0 1.0735255737806202 -0.28938836857960915 0.0 0.4669308237110766 0.45930704829215785 0.0 0.2612005140967249 0.09831876041470278 0.0 1.220260718307304 -0.0754292293413505 0.0 0.1620338885341066 0.21402573133427763 0.0 0.33552571277680393 0.28057284673894517 0.0 1.0318620262928153 0.06291074238203977 0.0 0.3643878915080926 0.41066630549443933 0.0 0.35825476520441196 0.3650433422677063 0.0 0.7363686808530718 0.518030118332601 0.0 0.29310497012005515 0.34556783233497895 0.0 0.44434137357545134 0.4476940396685618 0.0 0.3046015244132901 0.25499752932518066 0.0 0.4875283950106745 0.4670746365813168 0.0 0.706356920884034 0.3495957253314688 0.0 0.6556507808246581 0.5210218178848696 0.0 0.5644422267251037 0.47849542644873744 0.0 0.6022850052032149 0.5051650875544169 0.0 0.8309513082187898 0.5623547979430353 0.0 0.5904840033890564 -0.09244941046302145 0.0 1.0515630193804517 0.5364618899474601 0.0 0.4128898857006398 0.3961847513670825 0.0 0.27212509013270625 -0.30343217505014797 0.0 0.8774120897468486 -0.23969667010714382 0.0 0.6741415228495296 -0.04052843841331966 0.0 1.3244264989981753 0.2668283342331567 0.0 1.289732506079384 0.3664533730139612 0.0 0.7338619745491177 0.13109718596852268 0.0 0.21814262159695044 -0.1905857601669123 0.0 0.013989081893928099 -0.03243066429459583 0.0 0.17741564524629738 0.11889304312272596 0.0 0.5657737027343173 0.2611819126681114 0.0 0.14615869413968616 0.15272292455994643 0.0 0.2110578400256246 0.20372426772430552 0.0 1.08919428059932 0.0550034742231114 0.0 0.41814410674955926 0.1528190805644007 0.0 0.7542567925269145 0.15725013654226577 0.0 0.7338745058570896 0.5133851492186391 0.0 0.4363870094071246 0.45807200393298136 0.0 0.5131957930092687 0.4781925480120082 0.0 0.49564522690446666 0.4240919006808386 0.0 0.5078418607559332 0.47834150580012536 0.0 0.7658478884728324 0.09034219920001287 0.0 0.579029155195881 0.4541827102014324 0.0 0.5357413842365578 0.416053123697848 0.0 0.5442777212143844 0.458192401438248 0.0 0.658828116286853 0.25189958834204323 0.0 0.9939859587070302 0.27347527370775976 0.0 0.5169954379961912 0.19988196662413202 0.0 0.43817596042973583 0.2960063804647968 0.0 0.5678669108427924 0.08206071641431215 0.0 0.31090951519452903 0.3550521305950934 0.0 0.882306832475333 0.14016302519287285 0.0 0.974820399831168 0.08775750028593116 0.0 0.8541234930128843 0.08702412187361287 0.0 0.8303443727293263 0.045117947297861456 0.0 0.6008256876443426 0.2726873746160481 0.0 0.6655900810692859 0.26990424929439055 0.0 0.8224375765054733 0.14863998689697247 0.0 0.6745391451892778 0.28562167359929186 0.0 0.5615593952337815 0.39883195779850883 0.0 1.0458076984470686 0.015609904153034485 0.0 0.8344594984873007 0.1352525086671672 0.0 1.1633515296990087 0.25568413060206346 0.0 0.6477860987121117 0.1289959126801372 0.0 0.8942065321856035 0.35557409632947407 0.0 0.3974335074194166 0.06204907000290119 0.0 1.220082493488514 0.055688472414331266 0.0 0.984750904040468 0.15847726909191096 0.0 1.0337019118728599 -0.09607209166657507 0.0 0.9916268302942998 0.007267820443479207 0.0 0.6785777506764434 0.27000701592091664 0.0 1.0049683454555656 -0.10501943074165886 0.0 1.1890181615569777 0.43949372913901213 0.0 0.8503317709365937 0.4678744705921265 0.0 1.1749262179234234 0.10030592245327503 0.0 0.9998895715086831 -0.06734126655777414 0.0 0.76299409812447 0.23455241557633083 0.0 1.0259751843518166 0.027919679293869484 0.0 1.1939067736758886 0.3698818072433829 0.0 1.1893396245591157 0.31146182668367306 0.0 1.068629690817875 0.4858606819138092 0.0 1.175869777421531 0.479906766853022 0.0 1.191563193364722 0.15335594818945025 0.0 0.9027673974889757 -0.06426381446882752 0.0 1.0697001704655358 0.02396386473643382 0.0 1.2588428463268768 0.41289534102117886 0.0 1.1894529573664623 0.41051308010988813 0.0 1.2626602289152926 0.37139021547537904 0.0 0.9079637639911327 0.24649270543795668 0.0 0.9785252639210644 0.32026238273641094 0.0 1.1421091998333968 0.4237124188231976 0.0 1.0805251830259934 0.4772223351781932 0.0 1.0830670884905638 -0.03619156079552356 0.0 0.0 0.0 0.0 1.0480595845849285 0.22731074924183817 0.0 0.96570314820247 0.34852446661645203 0.0 0.9865150852114788 0.5283837550967316 0.0 1.0139840717684203 0.2551616180261676 0.0 1.0348101890132915 0.4009964108546507 0.0 0.9994107516988228 0.2972351050735728 0.0 0.9965427833213584 0.4447225562732626 0.0 0.8267643151899929 0.1687537872003269 0.0 0.8621133387304949 0.329417684605114 0.0 0.8899182418917514 0.471175205737585 0.0 0.9014268010784471 0.25764014609122143 0.0 0.9272633773307585 0.3721242216397537 0.0 0.8377306088204527 0.19265429371110013 0.0 0.8796195371919353 0.2787356751178532 0.0 0.7940206506134737 0.19457466795989328 0.0 1.0875984301754356 0.3578660978613422 0.0 1.0398522029402655 0.3616367987772476 0.0 0.933119914610103 0.24659893261884733 0.0 0.8967169265403047 0.5359315690535174 0.0 0.5771070278138496 0.04478971806194099 0.0 0.8133581379827973 0.15142761647767067 0.0 0.7910355151160994 0.12391601989098697 0.0 0.6813934646944279 -0.05929514044930523 0.0 0.7142776010010476 0.008082432438030548 0.0 0.844855852769953 0.20533710896931048 0.0 0.6883418090433228 0.13533066536817373 0.0 0.6836679316508383 0.05702662291949644 0.0 0.6448239001301159 0.005999426983835837 0.0 0.7764550008707266 0.14972221629621874 0.0 0.4741191793727231 0.06997437599417633 0.0 0.7051699960192307 -0.003372582887771181 0.0 0.5952612760237519 -0.00039574846221668086 0.0 0.7506683859531293 0.08020412830398746 0.0 0.6528822328097004 -0.04618758073103683 0.0 0.0 0.0 0.0 0.6505141213929785 0.0051636417262836895 0.0 1.109954499396029 0.3989522066955173 0.0 1.2064434434477862 0.3666983807902675 0.0 1.091455903502471 -0.3964324002491461 0.0 0.8500270606490262 -0.20138267127921206 0.0 0.9614199538599795 -0.21938718653741296 0.0 0.8927243346307536 -0.07380336068229112 0.0 1.285555141542575 -0.0027529697936770825 0.0 1.1833516362531584 -0.02040258947195549 0.0 1.2554745906153877 -0.045297986757985284 0.0 1.1639990000443003 -0.01937689986819898 0.0 1.208059043741923 0.015161276909927201 0.0 -0.18576069752317778 -0.10220655234108629 0.0 -0.15434033389699045 -0.18197998545598332 0.0 -0.04513310419665421 -0.26791613473868386 0.0 -0.05980904695602068 -0.06302771215741028 0.0 0.2151718558331584 -0.07903361706695583 0.0 -0.14519294316949066 -0.02710623756220655 0.0 0.001876373263864601 0.04308531168082794 0.0 0.23463863734253734 0.0006175462988457431 0.0 0.0032189248967478437 0.09610887745566585 0.0 -0.09650340292884528 0.04943278157335724 0.0 0.9666325813828117 0.07689315114974377 0.0 0.5830131847974253 0.38926249386337974 0.0 1.1584971025931523 0.003623075982713821 0.0 1.0256126734556545 0.07943285423323848 0.0 0.9027589815208058 0.12489478262567263 0.0 1.1179090727208103 0.017266230636538763 0.0 1.2234769078294747 -0.24625725168285859 0.0 1.053491767155835 0.031880744530764005 0.0 1.2478579748510124 -0.1724258528791186 0.0 1.2333141135772272 -0.1258122708004924 0.0 1.2047531601533918 -0.06735864348225133 0.0 1.2472551842240989 -0.24407192421546436 0.0 1.2006497086815435 -0.1461373889067662 0.0 1.0705960812128519 -0.07322848968774737 0.0 1.2838010523748815 -0.24838897285753742 0.0 1.1642942633642004 -0.28934580854686065 0.0 1.2751213905338217 -0.3362626744354342 0.0 0.8904140712334425 -0.1334127260131976 0.0 1.2427109510772436 -0.3014737525071147 0.0 1.2412814661519007 -0.37064036089525393 0.0 1.205358332533904 -0.35119826123047365 0.0 1.2672890945553836 -0.39350489483157364 0.0 1.2086229220696392 -0.4731885389653053 0.0 1.1116965477649061 -0.3930292308147241 0.0 1.2445710844786915 -0.4376456200097572 0.0 1.0825683160666169 -0.3727497253792582 0.0 1.2104843293690979 -0.4266594613617883 0.0 1.1969521776088465 -0.4491985066376734 0.0 0.8786409486365294 -0.18124782824081725 0.0 1.1083402148986112 -0.5121763987684912 0.0 0.7264746866209999 -0.04380434838607842 0.0 1.1441570603047653 -0.3569347807657617 0.0 1.1251905128846253 -0.372910490979466