<?xml version="1.0"?>
<VTKFile type="UnstructuredGrid"  version="0.1"  >
<UnstructuredGrid>
<Piece  NumberOfPoints="1289" NumberOfCells="2413">
<Points>
<DataArray  type="Float64"  NumberOfComponents="3"  format="ascii">0 0 0  0 0.41 0  2.2 0.41 0  2.2 0 0  0.1 0.1 0  0.1 0.3 0  0.8 0.3 0  0.8 0.1 0  0.25 0.2 0  0.248976 0.210065 0  0.245948 0.219718 0  0.241038 0.228563 0  0.234448 0.23624 0  0.226448 0.242432 0  0.217365 0.246888 0  0.207571 0.249423 0  0.197468 0.249936 0  0.187467 0.248404 0  0.17798 0.24489 0  0.169395 0.239539 0  0.162062 0.232569 0  0.156283 0.224265 0  0.152293 0.214968 0  0.150257 0.205058 0  0.150257 0.194942 0  0.152293 0.185032 0  0.156283 0.175735 0  0.162062 0.167431 0  0.169395 0.160461 0  0.17798 0.15511 0  0.187467 0.151596 0  0.197468 0.150064 0  0.207571 0.150577 0  0.217365 0.153112 0  0.226448 0.157568 0  0.234448 0.16376 0  0.241038 0.171437 0  0.245948 0.180282 0  0.248976 0.189935 0  1.1 0 0  1.1 0.41 0  0.1 0.2 0  0.45 0.1 0  0.45 0.3 0  0.55 0 0  0.275 0.1 0  0.275 0.3 0  0.275 0 0  0.55 0.41 0  0 0.205 0  0.825 0 0  0.825 0.41 0  0.275 0.41 0  0.1 0.15 0  0.1875 0.1 0  0.1 0.25 0  0.1875 0.3 0  0.132322 0.2 0  0.241426 0.253518 0  0.241426 0.146482 0  0.264574 0.17974 0  0.264574 0.22026 0  0.138434 0.187348 0  0.153372 0.150948 0  0.148413 0.164094 0  0.176495 0.136535 0  0.22768 0.143571 0  0.138434 0.212652 0  0.148413 0.235906 0  0.176495 0.263465 0  0.22768 0.256429 0  0.23125 0.3 0  0.24769 0.24094 0  0.23125 0.1 0  0.24769 0.15906 0  0.26253 0.193641 0  0.190482 0.137872 0  0.166753 0.146661 0  0.157737 0.244461 0  0.190482 0.262128 0  0.203107 0.261264 0  0.253635 0.22977 0  0.203107 0.138736 0  0.253635 0.17023 0  0.261028 0.206206 0  0.167707 0.251809 0  0.143629 0.224191 0  0.215302 0.2591 0  0.270465 0.245894 0  0.215302 0.1409 0  0.270465 0.154106 0  0.284052 0.202587 0  0.14375 0.3 0  0.209375 0.3 0  0.225966 0.278501 0  0.209375 0.1 0  0.225966 0.121499 0  0.211613 0.273759 0  0.211613 0.126241 0  0.143629 0.175809 0  0.1 0.175 0  0.133484 0.164832 0  0.144491 0.249539 0  0.1 0.225 0  0.133484 0.235168 0  0.3625 0.3 0  0.25691 0.253381 0  0.25691 0.146619 0  0.277205 0.188698 0  0.184724 0.275712 0  0.237372 0.268285 0  0.184724 0.124288 0  0.237372 0.131715 0  0.197578 0.273149 0  0.193656 0.286994 0  0.197578 0.126851 0  0.193656 0.113006 0  0.122953 0.187671 0  0.118362 0.153758 0  0.155372 0.258107 0  0.122953 0.212329 0  0.118362 0.246242 0  0.276394 0.27264 0  0.276394 0.12736 0  0.280965 0.170013 0  0.253125 0.3 0  0.14375 0.1 0  0.253125 0.1 0  0.269489 0.26014 0  0.269489 0.13986 0  0.303639 0.184297 0  0.165625 0.3 0  0.134742 0.273113 0  0.257831 0.274737 0  0.255279 0.128499 0  0.3625 0.1 0  0.165625 0.1 0  0.162031 0.132368 0  0.134955 0.126405 0  0.149334 0.125568 0  0.142936 0.139597 0  0.12695 0.140259 0  0.242514 0.285501 0  0.242514 0.114499 0  0.1 0.125 0  0.117483 0.12555 0  0.11154 0.139776 0  0.121875 0.1 0  0.109143 0.1125 0  0.126805 0.114 0  0.220313 0.29129 0  0.351562 0.287369 0  0.207222 0.2866 0  0.220312 0.10871 0  0.1375 0 0  0.20625 0 0  0.207222 0.1134 0  0.11722 0.17118 0  0.1 0.1625 0  0.0778409 0.16875 0  0.0862762 0.15625 0  0 0.15375 0  0 0.1025 0  0.11722 0.22882 0  0.1 0.2375 0  0 0.3075 0  0.0862762 0.23125 0  0.0598995 0.222547 0  0.0860223 0.2125 0  0.289584 0.181469 0  0.300267 0.16446 0  0.163832 0.269071 0  0.149597 0.273325 0  0.1 0.275 0  0.268498 0.285953 0  0.31875 0.3 0  0.294154 0.254672 0  0.296875 0.3 0  0.293558 0.271845 0  0.285095 0.286799 0  0.324298 0.264316 0  0.307866 0.263745 0  0.317093 0.234901 0  0.315485 0.281219 0  0.316547 0.250625 0  0.344693 0.243731 0  0.331592 0.251147 0  0.35129 0.270663 0  0.338689 0.263683 0  0.340625 0.3 0  0.249849 0.264383 0  0.265097 0.11422 0  0.284688 0.156136 0  0.242188 0.324017 0  0.0856613 0.2625 0  0.132812 0.0612217 0  0.264062 0.0612217 0  0.198437 0.07598340000000001 0  0.0860223 0.1375 0  0.0794526 0.191089 0  0.285228 0.140397 0  0.298655 0.148737 0  0.31875 0.1 0  0.327335 0.15374 0  0.296875 0.1 0  0.312289 0.155283 0  0.313348 0.135607 0  0.321802 0.173916 0  0.298433 0.134116 0  0.112124 0.2625 0  0.127526 0.259083 0  0.121875 0.3 0  0.0682687 0.241503 0  0.1 0.2875 0  0.117762 0.28125 0  0.107813 0.3 0  0.103906 0.313849 0  0.0778409 0.28125 0  0.1375 0.41 0  0.0862762 0.29375 0  0.08886860000000001 0.24375 0  0.307812 0.338778 0  0.307812 0.292227 0  0.33216 0.279164 0  0.387888 0.266414 0  0.264063 0.31948 0  0.110937 0.07598340000000001 0  0.242188 0.07598340000000001 0  0.319914 0.11839 0  0.340625 0.1 0  0.334448 0.133793 0  0.329687 0.108539 0  0.346259 0.118491 0  0.360334 0.173636 0  0.327539 0.205033 0  0.132812 0.288712 0  0.362436 0.278836 0  0.368105 0.259418 0  0.4125 0.41 0  0.329687 0.324017 0  0.329687 0.292306 0  0.285938 0.318952 0  0.417187 0.338778 0  0.324481 0.14148 0  0.351562 0.106771 0  0.40625 0.1 0  0.341028 0.168342 0  0.319221 0.190479 0  0.335292 0.184501 0  0.305563 0.20794 0  0.220313 0.31948 0  0.132812 0.332772 0  0.0865876 0.311259 0  0.0598995 0.302453 0  0.0906541 0.343255 0  0.353543 0.255837 0  0.36574 0.237633 0  0.405007 0.254279 0  0.275795 0.352123 0  0.4125 0 0  0.35493 0.137394 0  0.366563 0.120618 0  0.35917 0.205246 0  0.198438 0.318952 0  0.0626109 0.263892 0  0.40625 0.3 0  0.354809 0.155936 0  0.386512 0.146872 0  0.373101 0.159939 0  0.384375 0.1 0  0.343394 0.19929 0  0.350682 0.185683 0  0.368101 0.189748 0  0.344016 0.221511 0  0.391108 0.213329 0  0.376279 0.204783 0  0.398843 0.182768 0  0.375804 0.222746 0  0.390665 0.196958 0  0.394004 0.23518 0  0.359883 0.222828 0  0.419908 0.204359 0  0.404243 0.204783 0  0.412615 0.224526 0  0.20625 0.41 0  0.165625 0.325257 0  0.0347982 0.244954 0  0.379558 0.247154 0  0.34165 0.147603 0  0.372264 0.136992 0  0.388988 0.121989 0  0.373437 0.108554 0  0.351562 0.31948 0  0.391367 0.16527 0  0.399572 0.223324 0  0.452011 0.227371 0  0.40877 0.239392 0  0.431491 0.237337 0  0.421224 0.250459 0  0.449619 0.262098 0  0.418865 0.276779 0  0.437063 0.252274 0  0.415673 0.263227 0  0.430988 0.266772 0  0.402767 0.273419 0  0.452967 0.244883 0  0.428125 0.3 0  0.408502 0.286186 0  0.384375 0.3 0  0.392267 0.285807 0  0.465927 0.219339 0  0.43489 0.283846 0  0.376424 0.286289 0  0.625 0.3 0  0.473533 0.205186 0  0.461713 0.255517 0  0.5375 0.3 0  0.465725 0.235405 0  0.44631 0.201425 0  0.471875 0.3 0  0.494307 0.227729 0  0.459448 0.206736 0  0.462294 0.180792 0  0.478933 0.227536 0  0.486793 0.21381 0  0.486322 0.251373 0  0.50065 0.215318 0  0.54005 0.175389 0  0.474633 0.189893 0  0.512916 0.208697 0  0.49531 0.199967 0  0.475889 0.175275 0  0.625 0.1 0  0.459311 0.153933 0  0.513645 0.242704 0  0.392892 0.248539 0  0.374815 0.271913 0  0.365974 0.14871 0  0.395312 0.109184 0  0.417061 0.123981 0  0.483196 0.277003 0  0.381967 0.179632 0  0.429898 0.219374 0  0.433473 0.206165 0  0.43149 0.181038 0  0.444208 0.215487 0  0.472985 0.247309 0  0.49375 0.3 0  0.475579 0.262714 0  0.49916 0.274293 0  0.501175 0.184809 0  0.514164 0.225681 0  0.543648 0.214977 0  0.5341630000000001 0.23481 0  0.527396 0.216171 0  0.5375 0.1 0  0.534548 0.202315 0  0.561545 0.192513 0  0.5494289999999999 0.201221 0  0.570923 0.218346 0  0.412582 0.149833 0  0.489327 0.264745 0  0.502439 0.254775 0  0.462391 0.271166 0  0.496775 0.241732 0  0.5294410000000001 0.268606 0  0.482812 0.291099 0  0.46879 0.285038 0  0.452663 0.284065 0  0.51789 0.257882 0  0.53408 0.252026 0  0.560142 0.243543 0  0.545708 0.243474 0  0.547532 0.229019 0  0.55282 0.265323 0  0.398971 0.153424 0  0.400349 0.135684 0  0.410135 0.168145 0  0.428823 0.161323 0  0.415266 0.183779 0  0.329687 0.0810483 0  0.395312 0.0612217 0  0.373437 0.318952 0  0.439062 0.324017 0  0.561816 0.229354 0  0.585029 0.239287 0  0.431827 0.139854 0  0.446796 0.168929 0  0.351562 0.07598340000000001 0  0.395313 0.318944 0  0.54337 0.150762 0  0.460937 0.31948 0  0.418412 0.137529 0  0.428125 0.1 0  0.442783 0.152332 0  0.450742 0.134294 0  0.373437 0.0805201 0  0.384383 0.342558 0  0.482812 0.318952 0  0.429239 0.127457 0  0.444274 0.117405 0  0.426548 0.113815 0  0.49375 0.1 0  0.488954 0.113984 0  0.457973 0.121842 0  0.471621 0.137346 0  0.515625 0.325257 0  0.48125 0.41 0  0.417187 0.07598340000000001 0  0.496363 0.126778 0  0.479043 0.155715 0  0.439062 0.0805201 0  0.481795 0.126919 0  0.471875 0.1 0  0.489227 0.142159 0  0.515625 0.1 0  0.520062 0.147117 0  0.501244 0.161791 0  0.505431 0.112984 0  0.505344 0.14029 0  0.526563 0.119081 0  0.5181750000000001 0.131908 0  0.539868 0.136937 0  0.460937 0.108383 0  0.474242 0.114415 0  0.460937 0.0810483 0  0.487841 0.167168 0  0.526563 0.0612217 0  0.526563 0.106406 0  0.537619 0.112743 0  0.58125 0.1 0  0.559375 0.1 0  0.482812 0.08105569999999999 0  0.471883 0.0587655 0  0.570312 0.129396 0  0.548437 0.07598340000000001 0  0.504687 0.08105569999999999 0  0.49375 0.0470127 0  0.570312 0.112663 0  0.592798 0.12103 0  0.553986 0.12103 0  0.570312 0.0805201 0  0.48125 0 0  0.114787 0.2 0  0.160769 0.284765 0  0.175816 0.288361 0  0.162602 0.116048 0  0.154687 0.07598340000000001 0  0.176562 0.0805201 0  0.0598995 0.147547 0  0.307812 0.109924 0  0.291279 0.117157 0  0.278491 0.112989 0  0.285937 0.07598340000000001 0  0.307812 0.0805201 0  0.296928 0.196743 0  0.318141 0.218507 0  0.330208 0.227509 0  0.301397 0.225668 0  0.302706 0.241401 0  0.292574 0.21424 0  0.282762 0.230935 0  0.284351 0.244775 0  0.269553 0.23261 0  0.278572 0.217242 0  0.226924 0.342606 0  0.446928 0.185396 0  0.515625 0.3 0  0.504687 0.288879 0  0.515256 0.276534 0  0.529479 0.285328 0  0.58125 0.3 0  0.541969 0.272936 0  0.559375 0.3 0  0.556796 0.282529 0  0.543473 0.287206 0  0.581429 0.267774 0  0.566728 0.271171 0  0.570869 0.255585 0  0.577404 0.283865 0  0.603125 0.3 0  0.597531 0.28035 0  0.570312 0.338778 0  0.592188 0.292492 0  0.603513 0.256094 0  0.614063 0.286265 0  0.610329 0.27064 0  0.632708 0.251285 0  0.657223 0.261594 0  0.618789 0.257807 0  0.614188 0.22987 0  0.630935 0.265614 
[...]
<PointData  Vectors="v"> 
	<DataArray  type="Float64"  Name="v"  NumberOfComponents="3" format="ascii">
0.0 0.0 0.0 0.0 0.0 0.0 0.0 0.0 0.0 0.0 0.0 0.0 0.8026869095442862 -0.19554259903764198 0.0 0.8368174061363202 0.18518218817956164 0.0 0.6845597366296547 0.18950152167326872 0.0 0.6569586439936193 0.04061184602214508 0.0 0.0 0.0 0.0 0.0 0.0 0.0 0.0 0.0 0.0 0.0 0.0 0.0 0.0 0.0 0.0 0.0 0.0 0.0 0.0 0.0 0.0 0.0 0.0 0.0 0.0 0.0 0.0 0.0 0.0 0.0 0.0 0.0 0.0 0.0 0.0 0.0 0.0 0.0 0.0 0.0 0.0 0.0 0.0 0.0 0.0 0.0 0.0 0.0 0.0 0.0 0.0 0.0 0.0 0.0 0.0 0.0 0.0 0.0 0.0 0.0 0.0 0.0 0.0 0.0 0.0 0.0 0.0 0.0 0.0 0.0 0.0 0.0 0.0 0.0 0.0 0.0 0.0 0.0 0.0 0.0 0.0 0.0 0.0 0.0 0.0 0.0 0.0 0.0 0.0 0.0 0.0 0.0 0.0 0.0 0.0 0.0 0.0 0.0 0.0 0.7660748737245224 -0.02252705842116696 0.0 0.8997303681773722 0.19283193668096135 0.0 1.2717701701014295 -0.10979599973774329 0.0 0.0 0.0 0.0 1.3264630836536735 -0.01923021535494608 0.0 1.2703724483599106 0.030588385150269348 0.0 0.0 0.0 0.0 0.0 0.0 0.0 1.0 0.0 0.0 0.0 0.0 0.0 0.0 0.0 0.0 0.0 0.0 0.0 0.853913793624111 -0.24411247105051925 0.0 1.1754329855067531 -0.29658761313259513 0.0 0.864979513535647 0.20672342704460617 0.0 1.1573892684055325 0.28058686303297165 0.0 0.4329269665809687 -0.03357476365419433 0.0 0.2253485948377966 0.0011115922165066312 0.0 0.19620901311013556 -0.022556658695772128 0.0 -0.026130060592173727 -0.19716585871167241 0.0 -0.06305199631919875 -0.05800163949998678 0.0 0.34448525926879026 -0.31513299194421823 0.0 0.8947364963592969 -0.6955712716737529 0.0 0.6688918839697822 -0.7235032352392432 0.0 1.2755383978888688 -0.6154185449313778 0.0 0.33858793075267557 0.007852166616843412 0.0 0.32989682695457906 0.2381977050793814 0.0 0.6431716240069114 0.6463688703473618 0.0 1.2168526495063658 0.5841218618715159 0.0 0.3543323399608438 -0.02086341984744611 0.0 1.2630864683195913 0.1483459139518181 0.0 -0.0014369583439917232 0.02792549608099501 0.0 1.2956833265865917 -0.14778996033985559 0.0 -0.01458465447964194 -0.06455745078748576 0.0 -0.032377575795478473 -0.16850772214740495 0.0 1.2712303816498536 -0.40817066759561366 0.0 1.1608566340450588 -0.752167372086597 0.0 0.8612235301041609 0.7572031029586958 0.0 1.2525365114225957 0.39116931282926953 0.0 0.9583499622262274 0.15734049991701296 0.0 -0.03530958796747203 0.015451621714063942 0.0 0.9666193797676232 -0.16335197005633545 0.0 -0.03398361878418343 -0.11479225740244255 0.0 -0.030300452144880727 -0.11009879392859219 0.0 1.056472682095535 0.7143539004163626 0.0 0.43843441793943827 0.5027704851155047 0.0 0.5986584613385576 0.019509485199899455 0.0 0.09989551890538059 -0.04086219189699661 0.0 0.5893709273301257 -0.028214311957004492 0.0 0.1377314941358938 -0.11257711998485173 0.0 -0.13018837179343257 -0.1872220581201493 0.0 0.9609984521315673 0.2779169712450538 0.0 1.2397177700054118 0.210011461171019 0.0 1.3144391740744183 0.16475252273917373 0.0 1.248560455190112 -0.2280453254992078 0.0 1.3442329085712557 -0.1794923723547561 0.0 1.3256206201545813 0.22370868053935064 0.0 1.3580732387679935 -0.23674779680070074 0.0 0.4641497326328616 -0.5830373141145944 0.0 0.8107408194276576 -0.1583527203607879 0.0 0.6915766610089779 -0.44689217613841153 0.0 0.8828306646151756 0.5684450600183907 0.0 0.8012263215964519 0.12026733375681849 0.0 0.6777464162411732 0.3900237563765466 0.0 1.1680496506711788 -0.023563525722557658 0.0 0.2633637538047809 -0.015595999267464265 0.0 0.24896582383761234 -0.036759861587362774 0.0 -0.06236315021124699 -0.21818192674807582 0.0 1.3000548775723986 0.40180231183773474 0.0 0.9540846080783847 0.03471909008717136 0.0 1.3300506889860226 -0.43388036306647454 0.0 0.9781115667814534 -0.049572132345952376 0.0 1.3394681214910267 0.33196238886124657 0.0 1.2642608277718816 0.3152098160632141 0.0 1.367319698478677 -0.35267184678312 0.0 1.2894791362084344 -0.31981144662070654 0.0 0.5941073858628813 -0.18909386251921567 0.0 0.8133934729179008 -0.349624893364473 0.0 1.0229888439132266 0.5745350267329291 0.0 0.594407686286691 0.12179240097936683 0.0 0.8142508760938612 0.30508961517237304 0.0 0.9533817291580681 -0.04145822616968804 0.0 1.045410534436898 -0.006606612808490264 0.0 0.04874072724551993 -0.206702109872753 0.0 1.2798829242248582 0.08073949504706426 0.0 0.9469644324162592 -0.31157401920724065 0.0 1.314389971029631 -0.07823186352594069 0.0 0.50449994987655 -0.047658204812103984 0.0 0.5373673043933985 -0.027433554815416587 0.0 -0.039017455835317266 -0.22946722124552005 0.0 1.0524288310413112 0.29888499393897294 0.0 0.9460628316579942 0.3590831190694896 0.0 1.0946700811193657 0.01524549054398613 0.0 1.0256091599108506 -0.03028972208575819 0.0 1.2425346502121906 0.24329716856462053 0.0 1.0509231053978243 -0.3195652983100348 0.0 1.123635052886366 -0.570773427558901 0.0 0.9551719160265144 -0.39242737456256577 0.0 1.0314168983361425 -0.4357232066039541 0.0 0.9665145463719726 -0.5560161456960366 0.0 0.8874888906033938 -0.41860299802826 0.0 1.311271114126748 0.10379898136214948 0.0 1.3469015612364093 -0.11612660108986451 0.0 0.8630399700085513 -0.24079232450479834 0.0 0.8955878598986673 -0.31474369654236467 0.0 0.8681306561758446 -0.30904064483849636 0.0 0.8625359231163471 -0.2525935466985799 0.0 0.8655149538307269 -0.25354619321518346 0.0 0.913669529438472 -0.31855471308824124 0.0 1.3061778139989526 0.18569005520881662 0.0 1.0673834179243682 -0.04610422362347253 0.0 1.3226254357215745 0.2523656408216698 0.0 1.3355471951550038 -0.18704222760581257 0.0 0.0 0.0 0.0 0.0 0.0 0.0 1.3412301122958175 -0.26308903840390446 0.0 0.7272843098802835 -0.2906576987074307 0.0 0.830665482530642 -0.2261293413719131 0.0 0.8767352339627494 -0.12222424176262572 0.0 0.8698633530767067 -0.1746318214301616 0.0 0.9375 0.0 0.0 0.7500000000000001 0.0 0.0 0.7243984578965514 0.23927863879798075 0.0 0.8255195080982488 0.17786888404376847 0.0 0.7499999999999999 0.0 0.0 0.8710432580478158 0.10883186538565781 0.0 0.9297384671611154 0.03192941275317161 0.0 0.8513345223619448 0.02707647053852336 0.0 -0.02525248976488587 -0.23179474559096314 0.0 0.18135945581726046 -0.18022643171819314 0.0 1.1313092047865556 0.5152798379666175 0.0 1.0254821019308678 0.4371372264215679 0.0 0.8799507122159363 0.22239492428225402 0.0 1.2532925936805255 0.017693770671356888 0.0 1.2127083061050359 -0.028162324612802523 0.0 0.32596586124523497 -0.11683836016434512 0.0 1.2485295678245272 -0.009635988557582935 0.0 0.8810668726621058 -0.07785653416439825 0.0 1.222751296141354 -0.02035470607408251 0.0 0.5661445231996256 -0.12528060596765533 0.0 0.5865530714216054 -0.12073822468579687 0.0 -0.09631985163264142 -0.16516296276480996 0.0 1.0496107587760206 -0.07633969696653634 0.0 0.18593413865150088 -0.14770520290839756 0.0 0.02454898729458253 -0.12194083427639058 0.0 0.1822177543276939 -0.1417876151889821 0.0 0.6928853251322026 -0.07493655440656345 0.0 0.5146141305488331 -0.11281516723741102 0.0 1.1868631651117585 -0.03552902637465311 0.0 0.6989930536499112 -0.011024496468580896 0.0 1.3299274361695768 -0.048095196467131576 0.0 0.2137116848096812 -0.13791868238724367 0.0 1.113858464161284 0.07677591651247007 0.0 0.8830276504683332 0.16082941862365854 0.0 0.7016443870094826 -0.15803071634303953 0.0 1.034082201531346 -0.019641452145246912 0.0 1.0291641390149446 -0.17311500664018112 0.0 0.8712348002759174 -0.18913639360697104 0.0 0.8792882784800631 -0.04029920175017876 0.0 0.5800879188439949 -0.036069525784503266 0.0 0.4332542430367981 -0.07907907167567926 0.0 1.3234850777209324 0.11745853112930828 0.0 0.5316108945136643 -0.02998129651430363 0.0 1.3368228631036336 0.04197379647472169 0.0 0.3964927096698635 -0.0989222865960261 0.0 0.8979306538673669 0.04577109221223461 0.0 0.14255551463666316 -0.16382376322897527 0.0 0.858281437505638 0.010764371240206388 0.0 0.8798260639123721 0.2714532390279535 0.0 0.8820025718658328 0.38230211639163986 0.0 0.8800716920708933 0.2397419665976328 0.0 0.9130875307686415 0.0956782351450241 0.0 0.863098184442394 0.20029353759494792 0.0 0.9036541866964642 0.2751682681081896 0.0 0.8532780666205705 0.20815336825875427 0.0 0.7967835258518567 0.16077993519438374 0.0 0.8658021454045616 0.1449878312052217 0.0 0.0 0.0 0.0 0.839184334340637 0.15804290272209093 0.0 0.8717552542915324 0.1516332115796386 0.0 1.0402599453809855 -0.011112205846284709 0.0 1.2084371436657524 -0.04463809681960615 0.0 0.9611295440069453 -0.0804117006268629 0.0 0.5810558572060169 0.021965270960145666 0.0 1.1645612736307016 0.04477260263309249 0.0 0.7210298387298674 -0.16893899095557283 0.0 1.1296210329714302 -0.07975153957840787 0.0 1.3046530391848026 0.11603430490312393 0.0 1.303018268170897 0.18458375676383484 0.0 1.0673689649037306 0.14866042114210204 0.0 1.3454444331691964 0.16395325805887714 0.0 1.3196229263433576 0.23296530581968244 0.0 0.33108106347791166 0.10628547635392675 0.0 -0.23280320696022858 -0.20192356718553603 0.0 0.9434271729521996 0.306729403218332 0.0 0.8935448860091467 -0.04450747021272836 0.0 0.3718412499524401 -0.036161405250935634 0.0 0.0 0.0 0.0 1.1266840073855326 -0.020285757721317303 0.0 1.1664270064630478 -0.050884932615612576 0.0 1.1685955512898292 0.015593637127079014 0.0 1.0506338172085257 -0.06233020351072872 0.0 0.797260927459635 0.04226758961751605 0.0 1.3068419415312877 0.24107304168343005 0.0 1.0699938571844414 0.28232692548614485 0.0 0.33243671037308054 -0.031770630651432936 0.0 -0.09953578474139912 -0.21251568357886239 0.0 0.021468094358443834 -0.14161259514212682 0.0 -0.1988641206345298 -0.21205106692812256 0.0 1.127393762480062 0.12985019030915887 0.0 0.7646109829025137 0.16878625102912098 0.0 0.7747017870410389 0.13648278563580948 0.0 0.7844217817166909 0.09582786279598625 0.0 0.6140875702184952 0.09627610906072556 0.0 0.2790858270454661 -0.08499530423579714 0.0 -0.08527961469433007 -0.013169919472561532 0.0 0.3593862246503087 0.1320908939123048 0.0 0.9292524481346319 0.0188182523861355 0.0 0.0 0.0 0.0 1.0830460499980734 0.25359222503494866 0.0 1.2814434222717128 0.32220252414462336 0.0 -0.1972724955370701 -0.022218108923020608 0.0 1.0610163497799605 0.1933307236755614 0.0 0.9001369515054534 0.09978569747281643 0.0 1.2044433681478923 -0.023724105005386863 0.0 0.6691133665490459 0.14882083557069037 0.0 0.9928060918652057 0.4272438908988344 0.0 0.6848155902906475 0.28685167538380707 0.0 1.165683679088056 0.27872846051852845 0.0 -0.16828765857300093 -0.12683880926869429 0.0 0.055644988480881966 -0.03911657902000295 0.0 0.057221281088587976 0.105133558657703 0.0 -0.24660853140826763 -0.12715225881451592 0.0 -0.15809867257265597 0.22571360762019602 0.0 -0.13645334917155777 0.12579308307032994 0.0 0.3261444102161886 0.41503838398451914 0.0 -0.23046371451375072 0.08021009865736224 0.0 0.03684304178035732 0.2882936707137514 0.0 -0.0660679965317679 0.16511248656166957 0.0 -0.255013508479647 -0.04294995031506739 0.0 0.045529868925279486 0.4703537955298024 0.0 -0.019129937980876168 0.37944029388854944 0.0 -0.09138496153505597 0.3314859182921466 0.0 0.0 0.0 0.0 0.9235588116345509 0.2086343054096336 0.0 0.951642577282939 0.03442441692627291 0.0 0.11332949501995637 0.03199022169638963 0.0 0.7670170750566179 0.10099384205606131 0.0 1.1292697287620983 0.3619576436438424 0.0 1.2013320594184738 0.3862692848704734 0.0 1.2467100992555415 0.30745838154124294 0.0 1.1472450378402228 -0.02309616116418087 0.0 0.6503954681276145 0.4185196123983124 0.0 -0.14970388056988457 0.2508737725703975 0.0 0.22037096280963417 0.37833636660917896 0.0 0.07344705366043137 0.22801733372647018 0.0 0.19349279340114348 0.3105379887262264 0.0 0.38259894005199996 0.19157982879374633 0.0 0.8398199945237139 0.06327056616787476 0.0 0.9360491036964432 0.028886200298297623 0.0 0.5455622615890012 0.17712173670603604 0.0 0.622035305913097 0.10262684474522865 0.0 0.795075657627978 0.07578233107420174 0.0 0.7996463638855326 0.03538850661680404 0.0 0.543375167901022 0.19854931289194874 0.0 1.239172034313504 -0.05270599200215875 0.0 1.074796883305643 0.001348660757371653 0.0 1.1761486356934814 -0.01682517317668851 0.0 1.0368020574993246 -0.0017711372495765865 0.0 0.25406136473984653 0.3875932051290929 0.0 1.1362125473831384 -0.02919635845759176 0.0 1.0352391833286945 -0.016750493188738058 0.0 0.7911792477311541 -0.09826415770093537 0.0 0.2022581155044627 0.45287933546488923 0.0 0.824355718135247 0.05641404517357908 0.0 1.1301353827051253 -0.3174847378895769 0.0 0.4996144762875489 0.22588061538595264 0.0 0.1255577563609389 0.5336715662794919 0.0 1.282624949042579 -0.18485588836527705 0.0 0.6615590333432965 0.03980010115852428 0.0 0.12202765819704361 0.5166168691239705 0.0 0.3603142598902967 0.4782745294464768 0.0 0.5037450960043058 0.19867945589452107 0.0 0.38621575705674327 0.25845773432419983 0.0 0.9624299638122564 -0.08324469552838408 0.0 0.535526125354276 0.08579903799284243 0.0 0.42827851030792063 -0.10998076551542979 0.0 0.21642258633673564 0.49367697999416416 0.0 0.5572216760757142 -0.008493425863588755 0.0 0.3101025401763348 0.2766047360500015 0.0 0.35265299370566455 0.42949538684127175 0.0 0.9333005318074071 -0.07157744996502523 0.0 0.7104687802097669 0.36594865907514423 0.0 1.0279426829388287 -0.2752370567118523 0.0 0.18447136977735434 0.10899448097854005 0.0 0.7051044851020876 -0.01586397908037296 0.0 0.8911928265483536 0.2861859230766836 0.0 1.156277894339689 0.3347373069140639 0.0 1.0658228048223932 0.391056419358144 0.0 1.259551743854349 -0.20873477082367375 0.0 0.32065750312211944 0.29123607911596144 0.0 -0.00995905029540295 0.43253612760332344 0.0 0.0626264599983646 0.5147865095072581 0.0 0.4272525405023526 0.5166576910467602 0.0 0.056448196834773916 0.4841480234991135 0.0 0.7814145354008755 0.05647124582823644 0.0 1.2623372020749208 -0.2523081977693589 0.0 1.0516431899529082 -0.08691818873902553 0.0 1.2783538647555568 -0.290984644996039 0.0 0.2674236273439805 0.2994021319374281 0.0 0.8038158479469277 -0.16214797353819235 0.0 0.8543283094696486 -0.3934261588578505 0.0 1.041757070651626 -0.40987820652803625 0.0 0.7684830193462554 -0.24229978270442534 0.0 0.7761073458868724 -0.09399686150628993 0.0 0.6466843797041427 -0.2242557852321028 0.0 0.7063128320800027 -0.4012838028384876 0.0 0.7279001027475356 -0.3636993431183014 0.0 0.9710736513289927 -0.5193719251221444 0.0 0.9226448881175864 0.5003341872376652 0.0 1.1658802469778697 -0.19944475627243824 0.0 1.1159457173003666 -0.2468496851436122 0.0 1.0919731489554927 -0.06430746346267212 0.0 0.9016768187844634 -0.10122924251637154 0.0 1.2549999359237163 -0.4184217701275098 0.0 1.300925336035941 -0.23149562860069495 0.0 1.270904508214131 -0.15944595334662276 0.0 1.2075920655853511 -0.08843905424060014 0.0 1.2115368736729535 -0.37061447093586963 0.0 1.1889284097322037 -0.4432127380660425 0.0 1.123624817166044 -0.5052059992420254 0.0 1.1383326968949266 -0.48639615971714395 0.0 1.0193108044007566 -0.47317729545250176 0.0 1.1824750849313843 -0.4488482232564347 0.0 0.8836456773020404 0.4765770363066502 0.0 1.0973040058069954 0.4542256063865359 0.0 0.6352773895953305 0.503962029718511 0.0 0.7306269823376094 0.5041729693671576 0.0 0.3641217161402694 0.4900938337293399 0.0 1.185891210008222 0.1302231432637952 0.0 0.8699457226766975 0.15942835131265157 0.0 1.1548155215930587 -0.02409094211211279 0.0 1.1617979008296493 -0.10033809453425083 0.0 1.0449614302083337 -0.5177522396828579 0.0 1.0467024579311803 -0.47053222400692835 0.0 0.9344875262764932 0.42628524436753745 0.0 0.5825610085936398 0.47286743939160775 0.0 1.1044252460248623 0.16663826026112524 0.0 1.1666235538752916 -0.03325795501726135 0.0 0.3686506983967338 -0.023403659460227214 0.0 1.1844862064935937 -0.15168148072619606 0.0 1.015562701947002 0.44630559041640844 0.0 0.9814539901027188 0.2514037979852933 0.0 0.7939491315717367 0.4371782969462729 0.0 0.8829083993916763 0.32458149348918697 0.0 1.0847229905821527 0.20610416146693486 0.0 1.0205191739614694 -0.04091260445883328 0.0 1.1624188928165324 -0.1987000014683164 0.0 0.9981450228697564 0.37439330611944216 0.0 0.9388801516045587 0.280416008400589 0.0 1.0226427709553025 0.31961871683253457 0.0 0.8014389139413463 0.03286891010233754 0.0 0.803861578978858 0.07638740411664321 0.0 0.8848372724552759 0.2402366379423173 0.0 0.7747467939108683 0.2366675631875293 0.0 1.020573583056343 -0.22561188372437369 0.0 0.0 0.0 0.0 0.9080101019234429 0.18916654018830334 0.0 0.7348840222230983 0.08281829920000272 0.0 0.585689346055012 0.29844330209575276 0.0 0.8645719293264001 0.16353906846433539 0.0 0.7880550863516701 0.1447064162284011 0.0 0.8397532295203078 0.11581384688414371 0.0 0.66076261477784 0.18137672210164493 0.0 0.7832123967051835 -0.04569890597506404 0.0 0.3980176055163775 0.13150960866304684 0.0 0.3515375431956283 0.2754016744325049 0.0 0.7709377784107391 0.006534693573545118 0.0 0.5729353771784839 0.1321595976080362 0.0 0.6691754851797539 -0.03260582509772249 0.0 0.5804468536558762 0.043974277255352655 0.0 0.4234806125295225 -0.004817170962190367 0.0 0.8793471094710915 0.18061486972851012 0.0 0.8380120534409297 0.1431556074271878 0.0 0.8105109998725767 0.11255447949496561 0.0 0.3820015427242106 0.35801972676488225 0.0 0.6784764546321028 -0.04656516497684844 0.0 0.7589560182797094 -0.06762714337877011 0.0 0.693822337896285 -0.07313449164413957 0.0 0.7810134537963149 -0.1277836232587595 0.0 0.7680532024425848 -0.12076445044853992 0.0 0.7736794783532146 0.0485079691177181 0.0 0.6585382017419011 0.045699160326959934 0.0 0.4804471882791033 -0.13960088421076344 0.0 0.7873097135573675 -0.08881013301951916 0.0 0.7617458933671161 -0.012140876414280556 0.0 0.5342018411411599 -0.0005921488024390902 0.0 0.6400457903527195 -0.1280614741408948 0.0 0.588435851870743 -0.18375344168001737 0.0 0.5503663065794228 -0.08185819574979292 0.0 0.8347598701785794 -0.09795910135918741 0.0 0.0 0.0 0.0 0.650185907748496 -0.03055585951471759 0.0 1.0832032087567782 0.3865294263111913 0.0 1.1757418802332877 0.3612517157743343 0.0 1.1200233904436883 -0.4083118178908264 0.0 0.8686386642852484 -0.20719232207446195 0.0 0.9838470582077892 -0.22051282004603456 0.0 0.8957248751912457 -0.09012920750859568 0.0 1.3583797419732935 0.07533775089402028 0.0 1.2971325596941181 0.02714439585061744 0.0 1.3303655918446342 -0.006767038239955245 0.0 1.1670887975085245 0.025893392166953237 0.0 1.1986060991964638 0.07867203449891423 0.0 -0.13650912796262832 -0.2253389130699121 0.0 -0.22667136514494707 -0.19247310322594494 0.0 -0.19231186523879237 -0.1606658027948051 0.0 -0.15615922319782444 -0.1622521844724938 0.0 0.009746948774175906 -0.1375516710841818 0.0 -0.16960096787665788 -0.1667376756830347 0.0 -0.08917838138528306 -0.10313735774777305 0.0 0.08143947352222813 -0.0888415008123399 0.0 -0.05430726887825933 -0.047744434607106534 0.0 -0.11992820808099153 -0.11740003373024209 0.0 0.9526867260482894 0.09300478444776401 0.0 0.3476425975620534 0.51349074770525 0.0 1.205485460253743 -0.30031165988957453 0.0 1.2851947694740538 -0.31164092194595383 0.0 1.2832932873116158 -0.36016400395311393 0.0 1.2294349523316412 -0.37190977191875874 0.0 0.9515592863294734 -0.24029615973497603 0.0 1.213835165983874 -0.42103872599740855 0.0 1.038227566915743 -0.29281118991664884 0.0 1.130221369279465 -0.37335338798105994 0.0 1.1676946512028539 -0.3649909847196744 0.0 1.0638467054750116 -0.37537754897708736 0.0 1.1201459613330949 -0.4025622853637997 0.0 1.1187390488847244 -0.45719350207803794 0.0 1.038768718172704 -0.3256539503952425 0.0 0.8643556569418889 -0.17372277635889105 0.0 0.9638823415993918 -0.26919470538674745 0.0 0.6876544852028702 -0.13109920815496023 0.0 0.9427324510154272 -0.23948270493166987 0.0 0.992645774462521 -0.33974330615287285 0.0 0.8838421131070657 -0.1833769538299507 0.0 0.9423492670933981 -0.25898370211666977 0.0 0.896346934269034 -0.2350733752205877 0.0 0.7948119509505964 -0.11827487897922216 0.0 0.9344758121300439 -0.269551178651286 0.0 0.9565922449345862 -0.37675835779921224 0.0 0.8773894925773157 -0.19320450056337188 0.0 0.9407999665551424 -0.3130166622572319 0.0 0.6776400148406245 0.02612328761477172 0.0 0.8884222672151414 -0.2797051831398568 0.0 0.5430466807890049 0.010426491903891093 0.0 0.829904769456487 -0.128679765204133