<?xml version="1.0"?>
<VTKFile type="UnstructuredGrid"  version="0.1"  >
<UnstructuredGrid>
<Piece  NumberOfPoints="1289" NumberOfCells="2413">
<Points>
<DataArray  type="Float64"  NumberOfComponents="3"  format="ascii">0 0 0  0 0.41 0  2.2 0.41 0  2.2 0 0  0.1 0.1 0  0.1 0.3 0  0.8 0.3 0  0.8 0.1 0  0.25 0.2 0  0.248976 0.210065 0  0.245948 0.219718 0  0.241038 0.228563 0  0.234448 0.23624 0  0.226448 0.242432 0  0.217365 0.246888 0  0.207571 0.249423 0  0.197468 0.249936 0  0.187467 0.248404 0  0.17798 0.24489 0  0.169395 0.239539 0  0.162062 0.232569 0  0.156283 0.224265 0  0.152293 0.214968 0  0.150257 0.205058 0  0.150257 0.194942 0  0.152293 0.185032 0  0.156283 0.175735 0  0.162062 0.167431 0  0.169395 0.160461 0  0.17798 0.15511 0  0.187467 0.151596 0  0.197468 0.150064 0  0.207571 0.150577 0  0.217365 0.153112 0  0.226448 0.157568 0  0.234448 0.16376 0  0.241038 0.171437 0  0.245948 0.180282 0  0.248976 0.189935 0  1.1 0 0  1.1 0.41 0  0.1 0.2 0  0.45 0.1 0  0.45 0.3 0  0.55 0 0  0.275 0.1 0  0.275 0.3 0  0.275 0 0  0.55 0.41 0  0 0.205 0  0.825 0 0  0.825 0.41 0  0.275 0.41 0  0.1 0.15 0  0.1875 0.1 0  0.1 0.25 0  0.1875 0.3 0  0.132322 0.2 0  0.241426 0.253518 0  0.241426 0.146482 0  0.264574 0.17974 0  0.264574 0.22026 0  0.138434 0.187348 0  0.153372 0.150948 0  0.148413 0.164094 0  0.176495 0.136535 0  0.22768 0.143571 0  0.138434 0.212652 0  0.148413 0.235906 0  0.176495 0.263465 0  0.22768 0.256429 0  0.23125 0.3 0  0.24769 0.24094 0  0.23125 0.1 0  0.24769 0.15906 0  0.26253 0.193641 0  0.190482 0.137872 0  0.166753 0.146661 0  0.157737 0.244461 0  0.190482 0.262128 0  0.203107 0.261264 0  0.253635 0.22977 0  0.203107 0.138736 0  0.253635 0.17023 0  0.261028 0.206206 0  0.167707 0.251809 0  0.143629 0.224191 0  0.215302 0.2591 0  0.270465 0.245894 0  0.215302 0.1409 0  0.270465 0.154106 0  0.284052 0.202587 0  0.14375 0.3 0  0.209375 0.3 0  0.225966 0.278501 0  0.209375 0.1 0  0.225966 0.121499 0  0.211613 0.273759 0  0.211613 0.126241 0  0.143629 0.175809 0  0.1 0.175 0  0.133484 0.164832 0  0.144491 0.249539 0  0.1 0.225 0  0.133484 0.235168 0  0.3625 0.3 0  0.25691 0.253381 0  0.25691 0.146619 0  0.277205 0.188698 0  0.184724 0.275712 0  0.237372 0.268285 0  0.184724 0.124288 0  0.237372 0.131715 0  0.197578 0.273149 0  0.193656 0.286994 0  0.197578 0.126851 0  0.193656 0.113006 0  0.122953 0.187671 0  0.118362 0.153758 0  0.155372 0.258107 0  0.122953 0.212329 0  0.118362 0.246242 0  0.276394 0.27264 0  0.276394 0.12736 0  0.280965 0.170013 0  0.253125 0.3 0  0.14375 0.1 0  0.253125 0.1 0  0.269489 0.26014 0  0.269489 0.13986 0  0.303639 0.184297 0  0.165625 0.3 0  0.134742 0.273113 0  0.257831 0.274737 0  0.255279 0.128499 0  0.3625 0.1 0  0.165625 0.1 0  0.162031 0.132368 0  0.134955 0.126405 0  0.149334 0.125568 0  0.142936 0.139597 0  0.12695 0.140259 0  0.242514 0.285501 0  0.242514 0.114499 0  0.1 0.125 0  0.117483 0.12555 0  0.11154 0.139776 0  0.121875 0.1 0  0.109143 0.1125 0  0.126805 0.114 0  0.220313 0.29129 0  0.351562 0.287369 0  0.207222 0.2866 0  0.220312 0.10871 0  0.1375 0 0  0.20625 0 0  0.207222 0.1134 0  0.11722 0.17118 0  0.1 0.1625 0  0.0778409 0.16875 0  0.0862762 0.15625 0  0 0.15375 0  0 0.1025 0  0.11722 0.22882 0  0.1 0.2375 0  0 0.3075 0  0.0862762 0.23125 0  0.0598995 0.222547 0  0.0860223 0.2125 0  0.289584 0.181469 0  0.300267 0.16446 0  0.163832 0.269071 0  0.149597 0.273325 0  0.1 0.275 0  0.268498 0.285953 0  0.31875 0.3 0  0.294154 0.254672 0  0.296875 0.3 0  0.293558 0.271845 0  0.285095 0.286799 0  0.324298 0.264316 0  0.307866 0.263745 0  0.317093 0.234901 0  0.315485 0.281219 0  0.316547 0.250625 0  0.344693 0.243731 0  0.331592 0.251147 0  0.35129 0.270663 0  0.338689 0.263683 0  0.340625 0.3 0  0.249849 0.264383 0  0.265097 0.11422 0  0.284688 0.156136 0  0.242188 0.324017 0  0.0856613 0.2625 0  0.132812 0.0612217 0  0.264062 0.0612217 0  0.198437 0.07598340000000001 0  0.0860223 0.1375 0  0.0794526 0.191089 0  0.285228 0.140397 0  0.298655 0.148737 0  0.31875 0.1 0  0.327335 0.15374 0  0.296875 0.1 0  0.312289 0.155283 0  0.313348 0.135607 0  0.321802 0.173916 0  0.298433 0.134116 0  0.112124 0.2625 0  0.127526 0.259083 0  0.121875 0.3 0  0.0682687 0.241503 0  0.1 0.2875 0  0.117762 0.28125 0  0.107813 0.3 0  0.103906 0.313849 0  0.0778409 0.28125 0  0.1375 0.41 0  0.0862762 0.29375 0  0.08886860000000001 0.24375 0  0.307812 0.338778 0  0.307812 0.292227 0  0.33216 0.279164 0  0.387888 0.266414 0  0.264063 0.31948 0  0.110937 0.07598340000000001 0  0.242188 0.07598340000000001 0  0.319914 0.11839 0  0.340625 0.1 0  0.334448 0.133793 0  0.329687 0.108539 0  0.346259 0.118491 0  0.360334 0.173636 0  0.327539 0.205033 0  0.132812 0.288712 0  0.362436 0.278836 0  0.368105 0.259418 0  0.4125 0.41 0  0.329687 0.324017 0  0.329687 0.292306 0  0.285938 0.318952 0  0.417187 0.338778 0  0.324481 0.14148 0  0.351562 0.106771 0  0.40625 0.1 0  0.341028 0.168342 0  0.319221 0.190479 0  0.335292 0.184501 0  0.305563 0.20794 0  0.220313 0.31948 0  0.132812 0.332772 0  0.0865876 0.311259 0  0.0598995 0.302453 0  0.0906541 0.343255 0  0.353543 0.255837 0  0.36574 0.237633 0  0.405007 0.254279 0  0.275795 0.352123 0  0.4125 0 0  0.35493 0.137394 0  0.366563 0.120618 0  0.35917 0.205246 0  0.198438 0.318952 0  0.0626109 0.263892 0  0.40625 0.3 0  0.354809 0.155936 0  0.386512 0.146872 0  0.373101 0.159939 0  0.384375 0.1 0  0.343394 0.19929 0  0.350682 0.185683 0  0.368101 0.189748 0  0.344016 0.221511 0  0.391108 0.213329 0  0.376279 0.204783 0  0.398843 0.182768 0  0.375804 0.222746 0  0.390665 0.196958 0  0.394004 0.23518 0  0.359883 0.222828 0  0.419908 0.204359 0  0.404243 0.204783 0  0.412615 0.224526 0  0.20625 0.41 0  0.165625 0.325257 0  0.0347982 0.244954 0  0.379558 0.247154 0  0.34165 0.147603 0  0.372264 0.136992 0  0.388988 0.121989 0  0.373437 0.108554 0  0.351562 0.31948 0  0.391367 0.16527 0  0.399572 0.223324 0  0.452011 0.227371 0  0.40877 0.239392 0  0.431491 0.237337 0  0.421224 0.250459 0  0.449619 0.262098 0  0.418865 0.276779 0  0.437063 0.252274 0  0.415673 0.263227 0  0.430988 0.266772 0  0.402767 0.273419 0  0.452967 0.244883 0  0.428125 0.3 0  0.408502 0.286186 0  0.384375 0.3 0  0.392267 0.285807 0  0.465927 0.219339 0  0.43489 0.283846 0  0.376424 0.286289 0  0.625 0.3 0  0.473533 0.205186 0  0.461713 0.255517 0  0.5375 0.3 0  0.465725 0.235405 0  0.44631 0.201425 0  0.471875 0.3 0  0.494307 0.227729 0  0.459448 0.206736 0  0.462294 0.180792 0  0.478933 0.227536 0  0.486793 0.21381 0  0.486322 0.251373 0  0.50065 0.215318 0  0.54005 0.175389 0  0.474633 0.189893 0  0.512916 0.208697 0  0.49531 0.199967 0  0.475889 0.175275 0  0.625 0.1 0  0.459311 0.153933 0  0.513645 0.242704 0  0.392892 0.248539 0  0.374815 0.271913 0  0.365974 0.14871 0  0.395312 0.109184 0  0.417061 0.123981 0  0.483196 0.277003 0  0.381967 0.179632 0  0.429898 0.219374 0  0.433473 0.206165 0  0.43149 0.181038 0  0.444208 0.215487 0  0.472985 0.247309 0  0.49375 0.3 0  0.475579 0.262714 0  0.49916 0.274293 0  0.501175 0.184809 0  0.514164 0.225681 0  0.543648 0.214977 0  0.5341630000000001 0.23481 0  0.527396 0.216171 0  0.5375 0.1 0  0.534548 0.202315 0  0.561545 0.192513 0  0.5494289999999999 0.201221 0  0.570923 0.218346 0  0.412582 0.149833 0  0.489327 0.264745 0  0.502439 0.254775 0  0.462391 0.271166 0  0.496775 0.241732 0  0.5294410000000001 0.268606 0  0.482812 0.291099 0  0.46879 0.285038 0  0.452663 0.284065 0  0.51789 0.257882 0  0.53408 0.252026 0  0.560142 0.243543 0  0.545708 0.243474 0  0.547532 0.229019 0  0.55282 0.265323 0  0.398971 0.153424 0  0.400349 0.135684 0  0.410135 0.168145 0  0.428823 0.161323 0  0.415266 0.183779 0  0.329687 0.0810483 0  0.395312 0.0612217 0  0.373437 0.318952 0  0.439062 0.324017 0  0.561816 0.229354 0  0.585029 0.239287 0  0.431827 0.139854 0  0.446796 0.168929 0  0.351562 0.07598340000000001 0  0.395313 0.318944 0  0.54337 0.150762 0  0.460937 0.31948 0  0.418412 0.137529 0  0.428125 0.1 0  0.442783 0.152332 0  0.450742 0.134294 0  0.373437 0.0805201 0  0.384383 0.342558 0  0.482812 0.318952 0  0.429239 0.127457 0  0.444274 0.117405 0  0.426548 0.113815 0  0.49375 0.1 0  0.488954 0.113984 0  0.457973 0.121842 0  0.471621 0.137346 0  0.515625 0.325257 0  0.48125 0.41 0  0.417187 0.07598340000000001 0  0.496363 0.126778 0  0.479043 0.155715 0  0.439062 0.0805201 0  0.481795 0.126919 0  0.471875 0.1 0  0.489227 0.142159 0  0.515625 0.1 0  0.520062 0.147117 0  0.501244 0.161791 0  0.505431 0.112984 0  0.505344 0.14029 0  0.526563 0.119081 0  0.5181750000000001 0.131908 0  0.539868 0.136937 0  0.460937 0.108383 0  0.474242 0.114415 0  0.460937 0.0810483 0  0.487841 0.167168 0  0.526563 0.0612217 0  0.526563 0.106406 0  0.537619 0.112743 0  0.58125 0.1 0  0.559375 0.1 0  0.482812 0.08105569999999999 0  0.471883 0.0587655 0  0.570312 0.129396 0  0.548437 0.07598340000000001 0  0.504687 0.08105569999999999 0  0.49375 0.0470127 0  0.570312 0.112663 0  0.592798 0.12103 0  0.553986 0.12103 0  0.570312 0.0805201 0  0.48125 0 0  0.114787 0.2 0  0.160769 0.284765 0  0.175816 0.288361 0  0.162602 0.116048 0  0.154687 0.07598340000000001 0  0.176562 0.0805201 0  0.0598995 0.147547 0  0.307812 0.109924 0  0.291279 0.117157 0  0.278491 0.112989 0  0.285937 0.07598340000000001 0  0.307812 0.0805201 0  0.296928 0.196743 0  0.318141 0.218507 0  0.330208 0.227509 0  0.301397 0.225668 0  0.302706 0.241401 0  0.292574 0.21424 0  0.282762 0.230935 0  0.284351 0.244775 0  0.269553 0.23261 0  0.278572 0.217242 0  0.226924 0.342606 0  0.446928 0.185396 0  0.515625 0.3 0  0.504687 0.288879 0  0.515256 0.276534 0  0.529479 0.285328 0  0.58125 0.3 0  0.541969 0.272936 0  0.559375 0.3 0  0.556796 0.282529 0  0.543473 0.287206 0  0.581429 0.267774 0  0.566728 0.271171 0  0.570869 0.255585 0  0.577404 0.283865 0  0.603125 0.3 0  0.597531 0.28035 0  0.570312 0.338778 0  0.592188 0.292492 0  0.603513 0.256094 0  0.614063 0.286265 0  0.610329 0.27064 0  0.632708 0.251285 0  0.657223 0.261594 0  0.618789 0.257807 0  0.614188 0.22987 0  0.630935 0.265614 
[...]
<PointData  Vectors="v"> 
	<DataArray  type="Float64"  Name="v"  NumberOfComponents="3" format="ascii">
0.0 0.0 0.0 0.0 0.0 0.0 0.0 0.0 0.0 0.0 0.0 0.0 0.7940583826096221 -0.1778555896514877 0.0 0.8460140855216071 0.20331124562165845 0.0 0.7728862810021893 -0.10518933979211413 0.0 0.6214833609941925 -0.1673711493474425 0.0 0.0 0.0 0.0 0.0 0.0 0.0 0.0 0.0 0.0 0.0 0.0 0.0 0.0 0.0 0.0 0.0 0.0 0.0 0.0 0.0 0.0 0.0 0.0 0.0 0.0 0.0 0.0 0.0 0.0 0.0 0.0 0.0 0.0 0.0 0.0 0.0 0.0 0.0 0.0 0.0 0.0 0.0 0.0 0.0 0.0 0.0 0.0 0.0 0.0 0.0 0.0 0.0 0.0 0.0 0.0 0.0 0.0 0.0 0.0 0.0 0.0 0.0 0.0 0.0 0.0 0.0 0.0 0.0 0.0 0.0 0.0 0.0 0.0 0.0 0.0 0.0 0.0 0.0 0.0 0.0 0.0 0.0 0.0 0.0 0.0 0.0 0.0 0.0 0.0 0.0 0.0 0.0 0.0 0.0 0.0 0.0 0.0 0.0 0.0 0.7663754503081156 0.014153893629481194 0.0 1.2330857809011508 0.11032090864679875 0.0 0.9432638593724175 -0.21689905655903538 0.0 0.0 0.0 0.0 1.2543025072565381 -0.015129542224630707 0.0 1.3450542745239806 0.038823608321289636 0.0 0.0 0.0 0.0 0.0 0.0 0.0 1.0 0.0 0.0 0.0 0.0 0.0 0.0 0.0 0.0 0.0 0.0 0.0 0.8443603959246196 -0.21428439015715975 0.0 1.1439564502468074 -0.2750912118957974 0.0 0.8740673440477849 0.23640305835479866 0.0 1.1878663866645696 0.3030340597856231 0.0 0.43382353238321525 0.018462913809721135 0.0 0.186917575231634 0.027659894242491708 0.0 0.23266348321769545 0.004695965560180231 0.0 -0.06497201802909015 0.05026673430657695 0.0 -0.033347427065537734 0.19083363598543238 0.0 0.3351633921498324 -0.25720897541075327 0.0 0.865713281536988 -0.6520428171069108 0.0 0.64329039825097 -0.6733628729110797 0.0 1.240821376900455 -0.5854796552599907 0.0 0.36750643457387305 0.02517798288114641 0.0 0.33996458006499686 0.2963434727945582 0.0 0.668066804615839 0.6975437495788585 0.0 1.2489885923452397 0.6141442131820444 0.0 0.32146959961446453 -0.002823606228222232 0.0 1.3044022063185503 0.16691043097492345 0.0 -0.01919465912492147 0.06510700072632378 0.0 1.253661814567666 -0.13158266404023397 0.0 0.002078427171769212 -0.03108153403067142 0.0 -0.03971999145405719 0.10314681143861436 0.0 1.2473099099081646 -0.3916891093319824 0.0 1.1244189152330868 -0.7164674939541845 0.0 0.8929858807358304 0.8007899293500723 0.0 1.2741089741879434 0.4074012944434613 0.0 0.9543454420886789 0.16754475002712974 0.0 -0.033056773399209656 0.1135664817157525 0.0 0.9663306625376166 -0.15348274219591887 0.0 -0.036202996355205144 -0.02369553711633136 0.0 -0.028977713770617072 0.14843693294530025 0.0 1.0869521019544297 0.7471091784972409 0.0 0.4604534539170442 0.5595061780304866 0.0 0.5766543817440054 0.03001952525498855 0.0 0.12871238304933302 0.11086058434246325 0.0 0.6075739373944639 -0.01799616973975028 0.0 0.11508389323448596 0.038573788723870336 0.0 -0.11825169305638943 0.19427269797942864 0.0 0.9805579569107399 0.3018272793566388 0.0 1.2742498360442138 0.2294227659404333 0.0 1.3456343261588808 0.18811582760955217 0.0 1.212716602328007 -0.20965286842796604 0.0 1.3109374778522838 -0.15799034606625784 0.0 1.351967177509892 0.24542180661282428 0.0 1.3282722153365882 -0.2165860029964241 0.0 0.4419281409273497 -0.5262810238013688 0.0 0.8044302473577488 -0.12250830805081486 0.0 0.6737407414416052 -0.39541887958384375 0.0 0.9089090989664514 0.6106671072384388 0.0 0.8078481536041268 0.15570971384427593 0.0 0.6960849129432798 0.4415038029003427 0.0 1.2784057564896953 -0.23959338283194379 0.0 0.22618652845939766 0.04440220315570369 0.0 0.28524451844149945 0.022549610424982127 0.0 -0.11414143253829727 0.13087225955587486 0.0 1.3323358416145425 0.4272687907909743 0.0 0.9555785336543 0.05886255097377669 0.0 1.2955373798635301 -0.40987853468112706 0.0 0.9707800653237684 -0.026028572235334432 0.0 1.3691995737179183 0.3549408490310287 0.0 1.296455798136278 0.33921532856739167 0.0 1.3361087905910116 -0.3306765709140931 0.0 1.2558418452093656 -0.298049148180338 0.0 0.5869093775980574 -0.13866927263543138 0.0 0.7992747650170051 -0.3108125867530117 0.0 1.0539781106728567 0.6112976507940611 0.0 0.6015126099976046 0.17221404412905894 0.0 0.8282224506785667 0.3439008898702792 0.0 1.0103115640094544 0.02508670336422891 0.0 0.9788551274618403 0.049722352622674104 0.0 -0.0849981115427885 0.08699942233749654 0.0 1.3334835615913478 0.0962444869403941 0.0 0.9269458568426296 -0.28701188005797834 0.0 1.2612992351268175 -0.06524188992644932 0.0 0.4957982046033922 0.04007418629684329 0.0 0.5365078603028054 0.05607524934137221 0.0 -0.2000831322942936 0.18671255515471222 0.0 1.077878564783208 0.3228371455330661 0.0 0.9657544219678631 0.3900330145496524 0.0 1.1304383098159623 0.05448504784112995 0.0 1.0009601534843748 0.0012246785822658745 0.0 1.1508140299656764 0.041874440019243515 0.0 1.0240901452473623 -0.2960182172184229 0.0 1.0924422598377521 -0.5386823376525287 0.0 0.9347198333786263 -0.3613635254336692 0.0 1.005977735778909 -0.40525712427146365 0.0 0.9406149434264758 -0.5183426501819168 0.0 0.8694998024296496 -0.3828164348743429 0.0 1.3551073922854373 0.1286227918191977 0.0 1.3024478076047783 -0.09438407992883228 0.0 0.8529553583387226 -0.2172025804696285 0.0 0.880403573137356 -0.2868197683645737 0.0 0.8548924707623197 -0.2785503642618467 0.0 0.8478337929110245 -0.23093907731520727 0.0 0.8532621655432289 -0.2310785510203487 0.0 0.8965865637233126 -0.29227200323923563 0.0 1.3430615516508142 0.206743528923301 0.0 1.3440641994294829 -0.23114050072367445 0.0 1.3568594108980474 0.2756111550209249 0.0 1.2973691132456047 -0.16839828601999404 0.0 0.0 0.0 0.0 0.0 0.0 0.0 1.3058172771335652 -0.2416185296125874 0.0 0.717144795658157 -0.2473617980665154 0.0 0.8221809040712265 -0.1937255826319116 0.0 0.8729001076479285 -0.09847730857809027 0.0 0.8641087301511373 -0.14955085971707213 0.0 0.9375 0.0 0.0 0.7500000000000001 0.0 0.0 0.7343254504766412 0.2823310370357558 0.0 0.8337867156692252 0.2104498090635458 0.0 0.7499999999999999 0.0 0.0 0.8761702771222112 0.13648428340842067 0.0 0.9316279655809063 0.04732924846387887 0.0 0.8526712688985946 0.056136614888951455 0.0 -0.152122113654016 0.14603275300996643 0.0 -0.048054215676107466 0.1433355640973478 0.0 1.1617328652139831 0.5472567778842091 0.0 1.050735356291585 0.4687807146033169 0.0 0.8898253243342833 0.24622464981434453 0.0 1.326082799744002 0.04893003782116723 0.0 1.347249580678899 -0.09141830214367981 0.0 0.4475205550126293 0.07628669686636887 0.0 1.3558353561338357 -0.024450738286309958 0.0 1.0108045557919219 -0.0015277855719470575 0.0 1.3292582766830106 0.008306081861068352 0.0 0.9159483488584333 -0.05453329936773721 0.0 0.7954235043979694 0.006570591535133016 0.0 0.23681699615799462 0.16127421773120637 0.0 1.2875786020479547 -0.0772936297621796 0.0 0.5106431090555854 0.06961796718092868 0.0 0.5562830767075632 -0.019352042046178523 0.0 0.6273030333105175 0.009375798785063977 0.0 1.1947517295181225 -0.22309647827358506 0.0 0.9836464261569365 -0.12326033955724296 0.0 1.3387960973894477 -0.1676976558053181 0.0 0.6852075890200452 0.02244147064928025 0.0 1.2665725532537337 -0.01677684194648003 0.0 0.08523831731993532 0.09089476893909687 0.0 1.1574158052229269 0.08223608333632253 0.0 0.889373718710485 0.18237578431757165 0.0 0.6880201293462342 -0.14464893692508957 0.0 0.989491145168919 -0.024536327518854754 0.0 0.9974788991910991 -0.16029354194859854 0.0 0.8643743915130034 -0.16791881144002016 0.0 0.8784491870547013 -0.014489595769910343 0.0 0.5157367456854804 0.08861661507292971 0.0 0.2544641191753467 0.12477035340973462 0.0 1.1965039055892541 0.04838260872488793 0.0 0.1109113381309912 0.1646436024930935 0.0 1.2357153702598236 0.02756602230888208 0.0 0.08965315177250671 0.15804440066529962 0.0 0.6400432832154714 0.13131373918731742 0.0 -0.18418751624931629 0.1815814358590375 0.0 0.715052685775812 0.11410905913845723 0.0 0.892816517745487 0.30149899180644296 0.0 0.8997156045905216 0.4185629979719135 0.0 0.8940690727250145 0.2621162741520796 0.0 0.9164181421837619 0.11393918736457018 0.0 0.8725630810684042 0.22058534214590547 0.0 0.9179705761630512 0.3017976330476072 0.0 0.8640934648624777 0.22805028134331268 0.0 0.8057973602948748 0.1767144506625588 0.0 0.8714846336110799 0.16063771847986955 0.0 0.0 0.0 0.0 0.8457499508525775 0.17393653217017413 0.0 0.878044170690698 0.1776988554253093 0.0 1.0856979652519698 -0.05858530752260626 0.0 1.3653530406464935 -0.06059048758782953 0.0 1.2812645593885985 -0.14125370485521804 0.0 1.1637060587890493 -0.40717810237228313 0.0 1.2202430008160035 0.043309901845683604 0.0 0.711096262833389 -0.15370797471517902 0.0 1.0858730123446234 -0.07513412123020514 0.0 1.0660040765561463 0.09279818498174856 0.0 1.1712736284747955 0.05192351547035825 0.0 0.6507051965656409 0.12740627748248168 0.0 1.159018365023028 0.06911834846504067 0.0 0.9983037100199215 0.08108151600387967 0.0 -0.21624659355302148 0.07585126426937226 0.0 -0.16207196041126984 0.2107782817635518 0.0 0.9614168080792952 0.3334197310898318 0.0 1.2991222197271206 -0.2893026400694994 0.0 1.0382720176898792 -0.2909775948145725 0.0 0.0 0.0 0.0 1.1797439398384906 -0.11603742571880918 0.0 1.3683057134298213 -0.14965753915834404 0.0 1.2369684002976176 -0.0025047744311621047 0.0 0.8763238614201903 -0.15950785896671005 0.0 0.4354299386501249 0.14717054571929522 0.0 1.133470258867401 0.05201303348094354 0.0 1.1754694686042397 0.03378117537420364 0.0 -0.14609868297748918 0.15049783874292613 0.0 -0.23682152836521794 0.21460757688904306 0.0 -0.2572572971931993 0.18562931597285517 0.0 -0.12966420823945307 0.2421155875812294 0.0 1.164593035159708 0.1432054233280348 0.0 0.7780585399438192 0.18434708920730739 0.0 0.780308129760804 0.14960444199518905 0.0 0.7874003905160606 0.10430482337514792 0.0 0.619305923833969 0.10537159778005253 0.0 0.8862774913344093 -0.17256133246477998 0.0 0.5556697060116116 -0.1667723396943239 0.0 0.9950907858445828 -0.4800567749423807 0.0 0.9676854097204977 0.0013954458596789922 0.0 0.0 0.0 0.0 0.5064553156998657 0.09806439652748566 0.0 0.92632338564484 0.056055286325450815 0.0 -0.09191492431680681 0.029751466614729553 0.0 1.0921154237739628 0.20980130754465148 0.0 0.903217393236619 0.11313660055100193 0.0 1.1149307737992529 -0.2946294678366638 0.0 0.04936301723701851 0.10524829956479682 0.0 0.2806057545893422 -0.026443303223527684 0.0 -0.012817633952602462 0.021048822108575588 0.0 1.1570721837824767 0.031997874174772414 0.0 -0.19964858852494116 0.15463486657987122 0.0 -0.27111018128470193 0.12898165865969896 0.0 -0.24044237837744412 0.005845620761282301 0.0 0.12351886252616036 0.09624830347305056 0.0 0.1854998689067357 -0.29244137108065393 0.0 -0.0321617250157086 -0.1166638757263084 0.0 -0.16779742140352974 -0.2339174578843833 0.0 0.2934437109151847 -0.1929550477156225 0.0 -0.08000577327383093 -0.2183713188491335 0.0 0.6396230617181424 -0.39888129243157994 0.0 0.22970311198355917 -0.043451366486081965 0.0 0.15686717075090942 -0.4515770675260976 0.0 0.09800386186246135 -0.36836785984981685 0.0 0.48353846572912323 -0.478722998662866 0.0 0.0 0.0 0.0 0.9460276492335548 0.22654360630558967 0.0 0.9520944425907869 0.04076771257145265 0.0 0.8349373378450357 -0.3318272978908921 0.0 0.2417951775666206 0.14154444916084677 0.0 0.508078789226341 0.04421219332243336 0.0 0.8957589409637631 0.01869617329261611 0.0 1.1059975315226536 0.035395328498161384 0.0 1.183947467239611 -0.16726644527740073 0.0 -0.07118733631004798 -0.10676644996420627 0.0 0.4193271422209514 -0.39938093627411536 0.0 0.5252183557635862 -0.48104879648735216 0.0 0.7523813119087426 -0.49337512953445367 0.0 0.7075885146374554 -0.5146423943969365 0.0 0.9050315287511088 -0.49623892011599646 0.0 0.8947972325248843 -0.3739353447997259 0.0 1.0943410745185287 -0.3896932909876901 0.0 0.8750305325376048 -0.45688580143240326 0.0 1.0503883963669296 -0.4630489477000022 0.0 1.0055650614355895 -0.4182376356156573 0.0 1.1587325828245871 -0.42054728780755435 0.0 0.7406471265258922 -0.42651597868119234 0.0 1.0230477235898847 -0.2717607712153331 0.0 1.1454654104415358 -0.3572346098351975 0.0 1.2117119530193814 -0.2825006711338173 0.0 1.2182692805237336 -0.3566227017333227 0.0 0.36764494422191657 -0.4851414872868282 0.0 1.0160857196279025 -0.32390798989060526 0.0 1.2851372565347259 -0.32452627069496764 0.0 0.8782952726082075 0.1261592047865504 0.0 0.20290802773678368 -0.5013023158663377 0.0 0.7986064544733321 -0.3434363994119918 0.0 0.785121569639021 0.08766876687500014 0.0 0.5834580204033032 -0.41467901226368226 0.0 0.15940363877794958 -0.5181327361480339 0.0 0.874804314301195 -0.1409040600764993 0.0 0.33104444717776876 -0.38693073562848623 0.0 0.2190800620514492 -0.527229552113217 0.0 0.208577835400518 -0.4106687292418633 0.0 0.4079163293806968 -0.42122658954382064 0.0 0.24889978441867078 -0.44865301477294833 0.0 0.6464059451871484 -0.25689989449171624 0.0 0.28399981322292656 -0.34191184892896365 0.0 0.9674174393448598 0.38910962327624105 0.0 0.23019354861839456 -0.419149674111231 0.0 0.3817592885349087 -0.1634739220342904 0.0 0.3196594364417412 -0.31010793516277013 0.0 0.42282444873776165 -0.26645207406901256 0.0 0.738367302173997 0.0768550885731889 0.0 0.6222789001362747 -0.15401556918881482 0.0 0.3718546206729535 -0.23755503278182596 0.0 0.894177891785054 -0.43414274042400064 0.0 1.232963953425022 -0.35163977366228416 0.0 0.20757634419841794 0.05981343796842382 0.0 1.1053515996501726 0.017881055712247296 0.0 0.9206875668223622 -0.016314816297888897 0.0 0.8227513302154673 -0.1573934720817022 0.0 -0.22725568832358306 -0.0876041703028934 0.0 0.418146442630739 -0.5137532715118417 0.0 0.22127235716312474 -0.5029938715392712 0.0 -0.023590084300339056 -0.4222795973184818 0.0 0.3621730560651646 -0.5129890879913256 0.0 0.6784325758515021 -0.32970905245912485 0.0 0.8314468537295511 -0.055844406977894445 0.0 0.7870352616776181 -0.246915574236197 0.0 0.7582828694276521 -0.09456828595243896 0.0 0.5454078277841142 -0.10706975813642985 0.0 0.3117205606343291 -0.2349030773306367 0.0 0.5488954911114569 0.17058534697157732 0.0 0.37094589586118304 -0.05230175173112729 0.0 0.42606877628708645 -0.03135752449558633 0.0 1.086830614025584 0.3009595829472327 0.0 0.6138378085367775 0.15418465918081384 0.0 0.8812865006551901 0.45777246222652046 0.0 0.7243772578758269 0.32799172493652085 0.0 0.6891395048678978 0.3840807764939391 0.0 0.327696983175163 -0.13893593153277436 0.0 0.7394157321021666 -0.17469327651963656 0.0 0.5729222477202536 -0.19000235055050393 0.0 0.8805680866082775 -0.27516785474116623 0.0 0.4618121144426438 -0.3007445894597913 0.0 0.5432400871152877 -0.044808316866050815 0.0 0.8508516381879964 -0.11766719608107139 0.0 0.8854857242470986 -0.1950277065396775 0.0 0.9437068715866765 -0.262669967955648 0.0 0.4926913683740703 -0.1334587062899564 0.0 0.38934969006933656 -0.08471491303219 0.0 0.4678137726361397 0.1612737535566509 0.0 0.39882227502999235 0.03257164427830505 0.0 0.46700738792841084 0.126326244476727 0.0 0.44144125525422157 0.03457936316309288 0.0 0.18218601507785945 -0.10715395571554741 0.0 0.594029421122974 -0.0374692184005708 0.0 -0.03926454584475677 -0.23968089216367905 0.0 0.1982198195156899 -0.26244468474331684 0.0 -0.09206692311534888 -0.3492292937963139 0.0 1.1225246734054384 0.035355912007729084 0.0 0.9953498706650589 0.04809133465886406 0.0 1.1375612837353641 -0.206700203110682 0.0 0.8974127709586137 -0.16628975925480913 0.0 0.5515089333212784 0.2596450580798871 0.0 0.6240988744936383 0.3327287003240558 0.0 0.6703461211207646 -0.0977703719088832 0.0 0.22164570577225842 -0.331931655865367 0.0 1.0881672092155437 0.03795203575515761 0.0 1.0639235734443702 -0.2238750955762879 0.0 1.1807029007035017 0.4634931422787005 0.0 0.8600094767204017 -0.12601549385491317 0.0 0.6354430590952234 -0.08319375545152469 0.0 1.2036970527705146 0.06106933911539819 0.0 0.49805205297736144 -0.19094586109835285 0.0 0.9140809963913014 -0.02091188323454632 0.0 1.1134704436157228 0.036608025003127855 0.0 0.9384147946195954 -0.15645804522957077 0.0 0.8190696251062489 -0.06608545548626152 0.0 0.9090289007285632 -0.024959378784421036 0.0 1.1435818127000363 0.050561623187660804 0.0 1.1215543828675192 0.025908629344069498 0.0 1.2217808347990042 0.2414327745935553 0.0 1.2742617721565144 0.2405150773009102 0.0 1.1513813605097942 0.08260878684706684 0.0 1.0158908082880473 0.05708953835119359 0.0 0.7776297125356442 0.028262575799301505 0.0 0.0 0.0 0.0 1.1081147491253158 0.0634654935961745 0.0 1.251731733777373 0.26059034278744964 0.0 0.7794749516687136 -0.045245699857407326 0.0 1.1409344179890257 0.09762451469003808 0.0 1.206262257821468 0.17983216447089964 0.0 1.2436279092785534 0.1753005752019301 0.0 1.070644234725663 0.14411723769033552 0.0 1.1662104066997008 0.2891074253110902 0.0 1.1734062453694534 0.34983884417923083 0.0 0.8840725989728982 0.10293104192639693 0.0 1.2590545203541286 0.3009092915729986 0.0 1.1822684400682286 0.27357272346436345 0.0 1.230943955828835 0.3666085873442883 0.0 1.2555758081140056 0.3637340438716378 0.0 1.2210534399794901 0.43585989800802816 0.0 1.2499453437523862 0.13518293248528535 0.0 1.259441405990807 0.1759004678386514 0.0 1.1346912448884903 0.14141863866498283 0.0 0.6792083249116071 -0.07822716425850293 0.0 0.733624474349226 0.1497738627757584 0.0 1.1700808693952245 0.32613291291926333 0.0 1.162431481976817 0.3551007705780969 0.0 0.899521188353598 0.22908175790411853 0.0 0.9967863056980584 0.2830434355081015 0.0 1.1030955974873253 0.18529513732347017 0.0 0.9112717381961546 0.11673411528464497 0.0 1.0962932443938165 0.38860396561605554 0.0 0.8211094816391173 0.19687875275913155 0.0 1.052022692630531 0.21401623712179965 0.0 0.6668406513345674 0.09840443322447308 0.0 1.0252659044790582 0.31390639301794576 0.0 0.9661494292859734 0.2814842216186195 0.0 1.1362569661200808 0.38137747525417726 0.0 0.7798582191397757 0.17844176129815115 0.0 0.0 0.0 0.0 0.6504294415179277 0.013067561049885212 0.0 1.1093593572564364 0.4145808994728928 0.0 1.2049427259687857 0.38604806213470394 0.0 1.0911466879511813 -0.38141932474184576 0.0 0.8490103243896313 -0.19082876354537862 0.0 0.9573565062604592 -0.20363134944881078 0.0 0.8929797750029846 -0.07681704451330142 0.0 1.19766661373885 0.060239131338392406 0.0 1.167344466440878 0.05671512733379154 0.0 1.2388193580595355 0.01950521331801994 0.0 1.1055799904410233 0.004792027772106051 0.0 1.1304687025089384 0.02713823414427835 0.0 -0.1773609193638151 0.20404479176717505 0.0 -0.0069851577328199285 0.21699287309422266 0.0 0.17466693246284068 0.14479627327191474 0.0 0.04705367355886161 0.22305517436829694 0.0 0.2568980350246968 0.15401040539121796 0.0 -0.07214063300127739 0.23153350248905508 0.0 0.051197839328108764 0.20876450534872767 0.0 0.20405501795307757 0.13944044116789212 0.0 0.012872736405172204 0.1834251845944255 0.0 -0.046719719624618704 0.21925641106414043 0.0 0.9872870599319861 0.09790178113698045 0.0 0.07077437385955011 -0.47837881458175857 0.0 0.8061739342777591 0.02588620322592533 0.0 0.7991766096335913 -0.02906074739574896 0.0 0.7062619190167195 -0.03436842207301118 0.0 0.7154165502320609 0.03664697373051275 0.0 0.7547845964689416 0.1362673312323597 0.0 0.5313230349227053 0.006344809005295387 0.0 0.7662238964767486 0.11922465002715574 0.0 0.5875678590756936 0.07979890032465874 0.0 0.6811648103944008 0.06701230614073099 0.0 0.5114187272904662 0.18197132686924342 0.0 0.48511492793477184 0.10919333378821923 0.0 0.48461123639328396 0.17822259351562256 0.0 0.5790430699908189 0.1374192632599735 0.0 0.7940494174472059 0.14524517564530165 0.0 0.5928462775541607 0.19470657490456947 0.0 0.7955090793576145 0.07994393006949836 0.0 0.6864884676435721 0.15713742414340826 0.0 0.6354387230939923 0.2983090388054083 0.0 0.6894209908525081 0.19664184306690802 0.0 0.617562416236845 0.2521336999038109 0.0 0.7515400554386368 0.3238002533176302 0.0 0.7909747324210875 0.2859700232206921 0.0 0.6852479431559674 0.305323977082844 0.0 0.793468496994713 0.3966130205322969 0.0 0.6951536915613818 0.28580058474934883 0.0 0.7527385583817076 0.3515435244930626 0.0 1.1238810760317033 -0.04776825696171102 0.0 0.8521422046066676 0.3474436232230508 0.0 1.1689852649783756 -0.24641865084366169 0.0 0.7498514084324154 0.2059805519546287 0.0 0.7661146658308815 0.24246558587812536 0.0 1.00227