<?xml version="1.0"?>
<VTKFile type="UnstructuredGrid"  version="0.1"  >
<UnstructuredGrid>
<Piece  NumberOfPoints="1289" NumberOfCells="2413">
<Points>
<DataArray  type="Float64"  NumberOfComponents="3"  format="ascii">0 0 0  0 0.41 0  2.2 0.41 0  2.2 0 0  0.1 0.1 0  0.1 0.3 0  0.8 0.3 0  0.8 0.1 0  0.25 0.2 0  0.248976 0.210065 0  0.245948 0.219718 0  0.241038 0.228563 0  0.234448 0.23624 0  0.226448 0.242432 0  0.217365 0.246888 0  0.207571 0.249423 0  0.197468 0.249936 0  0.187467 0.248404 0  0.17798 0.24489 0  0.169395 0.239539 0  0.162062 0.232569 0  0.156283 0.224265 0  0.152293 0.214968 0  0.150257 0.205058 0  0.150257 0.194942 0  0.152293 0.185032 0  0.156283 0.175735 0  0.162062 0.167431 0  0.169395 0.160461 0  0.17798 0.15511 0  0.187467 0.151596 0  0.197468 0.150064 0  0.207571 0.150577 0  0.217365 0.153112 0  0.226448 0.157568 0  0.234448 0.16376 0  0.241038 0.171437 0  0.245948 0.180282 0  0.248976 0.189935 0  1.1 0 0  1.1 0.41 0  0.1 0.2 0  0.45 0.1 0  0.45 0.3 0  0.55 0 0  0.275 0.1 0  0.275 0.3 0  0.275 0 0  0.55 0.41 0  0 0.205 0  0.825 0 0  0.825 0.41 0  0.275 0.41 0  0.1 0.15 0  0.1875 0.1 0  0.1 0.25 0  0.1875 0.3 0  0.132322 0.2 0  0.241426 0.253518 0  0.241426 0.146482 0  0.264574 0.17974 0  0.264574 0.22026 0  0.138434 0.187348 0  0.153372 0.150948 0  0.148413 0.164094 0  0.176495 0.136535 0  0.22768 0.143571 0  0.138434 0.212652 0  0.148413 0.235906 0  0.176495 0.263465 0  0.22768 0.256429 0  0.23125 0.3 0  0.24769 0.24094 0  0.23125 0.1 0  0.24769 0.15906 0  0.26253 0.193641 0  0.190482 0.137872 0  0.166753 0.146661 0  0.157737 0.244461 0  0.190482 0.262128 0  0.203107 0.261264 0  0.253635 0.22977 0  0.203107 0.138736 0  0.253635 0.17023 0  0.261028 0.206206 0  0.167707 0.251809 0  0.143629 0.224191 0  0.215302 0.2591 0  0.270465 0.245894 0  0.215302 0.1409 0  0.270465 0.154106 0  0.284052 0.202587 0  0.14375 0.3 0  0.209375 0.3 0  0.225966 0.278501 0  0.209375 0.1 0  0.225966 0.121499 0  0.211613 0.273759 0  0.211613 0.126241 0  0.143629 0.175809 0  0.1 0.175 0  0.133484 0.164832 0  0.144491 0.249539 0  0.1 0.225 0  0.133484 0.235168 0  0.3625 0.3 0  0.25691 0.253381 0  0.25691 0.146619 0  0.277205 0.188698 0  0.184724 0.275712 0  0.237372 0.268285 0  0.184724 0.124288 0  0.237372 0.131715 0  0.197578 0.273149 0  0.193656 0.286994 0  0.197578 0.126851 0  0.193656 0.113006 0  0.122953 0.187671 0  0.118362 0.153758 0  0.155372 0.258107 0  0.122953 0.212329 0  0.118362 0.246242 0  0.276394 0.27264 0  0.276394 0.12736 0  0.280965 0.170013 0  0.253125 0.3 0  0.14375 0.1 0  0.253125 0.1 0  0.269489 0.26014 0  0.269489 0.13986 0  0.303639 0.184297 0  0.165625 0.3 0  0.134742 0.273113 0  0.257831 0.274737 0  0.255279 0.128499 0  0.3625 0.1 0  0.165625 0.1 0  0.162031 0.132368 0  0.134955 0.126405 0  0.149334 0.125568 0  0.142936 0.139597 0  0.12695 0.140259 0  0.242514 0.285501 0  0.242514 0.114499 0  0.1 0.125 0  0.117483 0.12555 0  0.11154 0.139776 0  0.121875 0.1 0  0.109143 0.1125 0  0.126805 0.114 0  0.220313 0.29129 0  0.351562 0.287369 0  0.207222 0.2866 0  0.220312 0.10871 0  0.1375 0 0  0.20625 0 0  0.207222 0.1134 0  0.11722 0.17118 0  0.1 0.1625 0  0.0778409 0.16875 0  0.0862762 0.15625 0  0 0.15375 0  0 0.1025 0  0.11722 0.22882 0  0.1 0.2375 0  0 0.3075 0  0.0862762 0.23125 0  0.0598995 0.222547 0  0.0860223 0.2125 0  0.289584 0.181469 0  0.300267 0.16446 0  0.163832 0.269071 0  0.149597 0.273325 0  0.1 0.275 0  0.268498 0.285953 0  0.31875 0.3 0  0.294154 0.254672 0  0.296875 0.3 0  0.293558 0.271845 0  0.285095 0.286799 0  0.324298 0.264316 0  0.307866 0.263745 0  0.317093 0.234901 0  0.315485 0.281219 0  0.316547 0.250625 0  0.344693 0.243731 0  0.331592 0.251147 0  0.35129 0.270663 0  0.338689 0.263683 0  0.340625 0.3 0  0.249849 0.264383 0  0.265097 0.11422 0  0.284688 0.156136 0  0.242188 0.324017 0  0.0856613 0.2625 0  0.132812 0.0612217 0  0.264062 0.0612217 0  0.198437 0.07598340000000001 0  0.0860223 0.1375 0  0.0794526 0.191089 0  0.285228 0.140397 0  0.298655 0.148737 0  0.31875 0.1 0  0.327335 0.15374 0  0.296875 0.1 0  0.312289 0.155283 0  0.313348 0.135607 0  0.321802 0.173916 0  0.298433 0.134116 0  0.112124 0.2625 0  0.127526 0.259083 0  0.121875 0.3 0  0.0682687 0.241503 0  0.1 0.2875 0  0.117762 0.28125 0  0.107813 0.3 0  0.103906 0.313849 0  0.0778409 0.28125 0  0.1375 0.41 0  0.0862762 0.29375 0  0.08886860000000001 0.24375 0  0.307812 0.338778 0  0.307812 0.292227 0  0.33216 0.279164 0  0.387888 0.266414 0  0.264063 0.31948 0  0.110937 0.07598340000000001 0  0.242188 0.07598340000000001 0  0.319914 0.11839 0  0.340625 0.1 0  0.334448 0.133793 0  0.329687 0.108539 0  0.346259 0.118491 0  0.360334 0.173636 0  0.327539 0.205033 0  0.132812 0.288712 0  0.362436 0.278836 0  0.368105 0.259418 0  0.4125 0.41 0  0.329687 0.324017 0  0.329687 0.292306 0  0.285938 0.318952 0  0.417187 0.338778 0  0.324481 0.14148 0  0.351562 0.106771 0  0.40625 0.1 0  0.341028 0.168342 0  0.319221 0.190479 0  0.335292 0.184501 0  0.305563 0.20794 0  0.220313 0.31948 0  0.132812 0.332772 0  0.0865876 0.311259 0  0.0598995 0.302453 0  0.0906541 0.343255 0  0.353543 0.255837 0  0.36574 0.237633 0  0.405007 0.254279 0  0.275795 0.352123 0  0.4125 0 0  0.35493 0.137394 0  0.366563 0.120618 0  0.35917 0.205246 0  0.198438 0.318952 0  0.0626109 0.263892 0  0.40625 0.3 0  0.354809 0.155936 0  0.386512 0.146872 0  0.373101 0.159939 0  0.384375 0.1 0  0.343394 0.19929 0  0.350682 0.185683 0  0.368101 0.189748 0  0.344016 0.221511 0  0.391108 0.213329 0  0.376279 0.204783 0  0.398843 0.182768 0  0.375804 0.222746 0  0.390665 0.196958 0  0.394004 0.23518 0  0.359883 0.222828 0  0.419908 0.204359 0  0.404243 0.204783 0  0.412615 0.224526 0  0.20625 0.41 0  0.165625 0.325257 0  0.0347982 0.244954 0  0.379558 0.247154 0  0.34165 0.147603 0  0.372264 0.136992 0  0.388988 0.121989 0  0.373437 0.108554 0  0.351562 0.31948 0  0.391367 0.16527 0  0.399572 0.223324 0  0.452011 0.227371 0  0.40877 0.239392 0  0.431491 0.237337 0  0.421224 0.250459 0  0.449619 0.262098 0  0.418865 0.276779 0  0.437063 0.252274 0  0.415673 0.263227 0  0.430988 0.266772 0  0.402767 0.273419 0  0.452967 0.244883 0  0.428125 0.3 0  0.408502 0.286186 0  0.384375 0.3 0  0.392267 0.285807 0  0.465927 0.219339 0  0.43489 0.283846 0  0.376424 0.286289 0  0.625 0.3 0  0.473533 0.205186 0  0.461713 0.255517 0  0.5375 0.3 0  0.465725 0.235405 0  0.44631 0.201425 0  0.471875 0.3 0  0.494307 0.227729 0  0.459448 0.206736 0  0.462294 0.180792 0  0.478933 0.227536 0  0.486793 0.21381 0  0.486322 0.251373 0  0.50065 0.215318 0  0.54005 0.175389 0  0.474633 0.189893 0  0.512916 0.208697 0  0.49531 0.199967 0  0.475889 0.175275 0  0.625 0.1 0  0.459311 0.153933 0  0.513645 0.242704 0  0.392892 0.248539 0  0.374815 0.271913 0  0.365974 0.14871 0  0.395312 0.109184 0  0.417061 0.123981 0  0.483196 0.277003 0  0.381967 0.179632 0  0.429898 0.219374 0  0.433473 0.206165 0  0.43149 0.181038 0  0.444208 0.215487 0  0.472985 0.247309 0  0.49375 0.3 0  0.475579 0.262714 0  0.49916 0.274293 0  0.501175 0.184809 0  0.514164 0.225681 0  0.543648 0.214977 0  0.5341630000000001 0.23481 0  0.527396 0.216171 0  0.5375 0.1 0  0.534548 0.202315 0  0.561545 0.192513 0  0.5494289999999999 0.201221 0  0.570923 0.218346 0  0.412582 0.149833 0  0.489327 0.264745 0  0.502439 0.254775 0  0.462391 0.271166 0  0.496775 0.241732 0  0.5294410000000001 0.268606 0  0.482812 0.291099 0  0.46879 0.285038 0  0.452663 0.284065 0  0.51789 0.257882 0  0.53408 0.252026 0  0.560142 0.243543 0  0.545708 0.243474 0  0.547532 0.229019 0  0.55282 0.265323 0  0.398971 0.153424 0  0.400349 0.135684 0  0.410135 0.168145 0  0.428823 0.161323 0  0.415266 0.183779 0  0.329687 0.0810483 0  0.395312 0.0612217 0  0.373437 0.318952 0  0.439062 0.324017 0  0.561816 0.229354 0  0.585029 0.239287 0  0.431827 0.139854 0  0.446796 0.168929 0  0.351562 0.07598340000000001 0  0.395313 0.318944 0  0.54337 0.150762 0  0.460937 0.31948 0  0.418412 0.137529 0  0.428125 0.1 0  0.442783 0.152332 0  0.450742 0.134294 0  0.373437 0.0805201 0  0.384383 0.342558 0  0.482812 0.318952 0  0.429239 0.127457 0  0.444274 0.117405 0  0.426548 0.113815 0  0.49375 0.1 0  0.488954 0.113984 0  0.457973 0.121842 0  0.471621 0.137346 0  0.515625 0.325257 0  0.48125 0.41 0  0.417187 0.07598340000000001 0  0.496363 0.126778 0  0.479043 0.155715 0  0.439062 0.0805201 0  0.481795 0.126919 0  0.471875 0.1 0  0.489227 0.142159 0  0.515625 0.1 0  0.520062 0.147117 0  0.501244 0.161791 0  0.505431 0.112984 0  0.505344 0.14029 0  0.526563 0.119081 0  0.5181750000000001 0.131908 0  0.539868 0.136937 0  0.460937 0.108383 0  0.474242 0.114415 0  0.460937 0.0810483 0  0.487841 0.167168 0  0.526563 0.0612217 0  0.526563 0.106406 0  0.537619 0.112743 0  0.58125 0.1 0  0.559375 0.1 0  0.482812 0.08105569999999999 0  0.471883 0.0587655 0  0.570312 0.129396 0  0.548437 0.07598340000000001 0  0.504687 0.08105569999999999 0  0.49375 0.0470127 0  0.570312 0.112663 0  0.592798 0.12103 0  0.553986 0.12103 0  0.570312 0.0805201 0  0.48125 0 0  0.114787 0.2 0  0.160769 0.284765 0  0.175816 0.288361 0  0.162602 0.116048 0  0.154687 0.07598340000000001 0  0.176562 0.0805201 0  0.0598995 0.147547 0  0.307812 0.109924 0  0.291279 0.117157 0  0.278491 0.112989 0  0.285937 0.07598340000000001 0  0.307812 0.0805201 0  0.296928 0.196743 0  0.318141 0.218507 0  0.330208 0.227509 0  0.301397 0.225668 0  0.302706 0.241401 0  0.292574 0.21424 0  0.282762 0.230935 0  0.284351 0.244775 0  0.269553 0.23261 0  0.278572 0.217242 0  0.226924 0.342606 0  0.446928 0.185396 0  0.515625 0.3 0  0.504687 0.288879 0  0.515256 0.276534 0  0.529479 0.285328 0  0.58125 0.3 0  0.541969 0.272936 0  0.559375 0.3 0  0.556796 0.282529 0  0.543473 0.287206 0  0.581429 0.267774 0  0.566728 0.271171 0  0.570869 0.255585 0  0.577404 0.283865 0  0.603125 0.3 0  0.597531 0.28035 0  0.570312 0.338778 0  0.592188 0.292492 0  0.603513 0.256094 0  0.614063 0.286265 0  0.610329 0.27064 0  0.632708 0.251285 0  0.657223 0.261594 0  0.618789 0.257807 0  0.614188 0.22987 0  0.630935 0.265614 
[...]
<PointData  Vectors="v"> 
	<DataArray  type="Float64"  Name="v"  NumberOfComponents="3" format="ascii">
0.0 0.0 0.0 0.0 0.0 0.0 0.0 0.0 0.0 0.0 0.0 0.0 0.8035072566831722 -0.1932219752198137 0.0 0.8360669495400663 0.18751325922006654 0.0 1.1056952404561586 -0.1809549728925002 0.0 0.439316433745116 0.03441646850003724 0.0 0.0 0.0 0.0 0.0 0.0 0.0 0.0 0.0 0.0 0.0 0.0 0.0 0.0 0.0 0.0 0.0 0.0 0.0 0.0 0.0 0.0 0.0 0.0 0.0 0.0 0.0 0.0 0.0 0.0 0.0 0.0 0.0 0.0 0.0 0.0 0.0 0.0 0.0 0.0 0.0 0.0 0.0 0.0 0.0 0.0 0.0 0.0 0.0 0.0 0.0 0.0 0.0 0.0 0.0 0.0 0.0 0.0 0.0 0.0 0.0 0.0 0.0 0.0 0.0 0.0 0.0 0.0 0.0 0.0 0.0 0.0 0.0 0.0 0.0 0.0 0.0 0.0 0.0 0.0 0.0 0.0 0.0 0.0 0.0 0.0 0.0 0.0 0.0 0.0 0.0 0.0 0.0 0.0 0.0 0.0 0.0 0.0 0.0 0.0 0.7662207050127712 -0.018407863738464203 0.0 0.9737476262499555 -0.021785889369278673 0.0 1.1528177528567733 -0.3296345713121906 0.0 0.0 0.0 0.0 1.2868462288588765 0.027136289027915147 0.0 1.308689225979284 0.07810631587400622 0.0 0.0 0.0 0.0 0.0 0.0 0.0 1.0 0.0 0.0 0.0 0.0 0.0 0.0 0.0 0.0 0.0 0.0 0.0 0.8537506339901298 -0.24101060833495772 0.0 1.1727044061293292 -0.2758586879702128 0.0 0.8647796808345619 0.2098437448454329 0.0 1.1599361119114395 0.30131062286199073 0.0 0.43346797057094805 -0.02178901221570765 0.0 0.1670078830878679 0.018240936309681252 0.0 0.25869699966260146 -0.0023688328612810785 0.0 -0.05055068050689907 -0.11881714206414527 0.0 -0.045810009399182956 0.0341150788458937 0.0 0.3428227310735013 -0.30139701375747396 0.0 0.8915176972149433 -0.6826304130507478 0.0 0.665323863420305 -0.7118687090299703 0.0 1.2774090317938476 -0.602287821041177 0.0 0.40198614584764364 0.027998703107656807 0.0 0.3318483676227769 0.25175145259663795 0.0 0.6465449719493755 0.6585951953375103 0.0 1.2143892887850734 0.5968761401324426 0.0 0.2935924242405343 -0.0016190567552868671 0.0 1.2752960474019432 0.18333564362639643 0.0 -0.021687228400189322 0.02700213409574887 0.0 1.2837353843165928 -0.11337170156927948 0.0 0.007868615126780464 -0.07116674508794645 0.0 -0.04837931164052715 -0.09309512842943317 0.0 1.2965376010101506 -0.4033479106385479 0.0 1.1624244673004238 -0.7434530149655805 0.0 0.8632376773578964 0.7666014519708603 0.0 1.2268256466861036 0.39577455933943445 0.0 0.9090605970462251 0.16327161306182109 0.0 -0.029841729587517605 0.02735788158590804 0.0 1.015964530028884 -0.15716449828275622 0.0 -0.03878070942368672 -0.1193594828451842 0.0 -0.03354968955232156 -0.03640787047291201 0.0 1.053245773543493 0.7203317720708332 0.0 0.4422449390979488 0.5157839800134 0.0 0.5390042356181962 0.030749589626051007 0.0 0.06139545107078057 0.0369993395622771 0.0 0.6508963274056122 -0.016543042730992406 0.0 0.19188565160506 -0.05126319436128347 0.0 -0.1426340243655745 0.024357615769302284 0.0 0.9609677135173428 0.2884430352933295 0.0 1.244554959478161 0.23797478077297998 0.0 1.2967138587541456 0.19757676616230946 0.0 1.242550903788751 -0.20062669434470984 0.0 1.358740324681926 -0.14567483917063348 0.0 1.303506869495598 0.24971397054893124 0.0 1.3775724031770225 -0.21006088933412062 0.0 0.4603385937882019 -0.570117687445333 0.0 0.8102028645184999 -0.15438041368505223 0.0 0.6893136979941352 -0.43431358178151347 0.0 0.8845171547253013 0.5790457745748031 0.0 0.8017398313332029 0.12403096906878694 0.0 0.6797996752703678 0.40201262484978745 0.0 1.3424302095837206 -0.11621563306816401 0.0 0.18227672715919624 0.012182273540385095 0.0 0.3385104607942731 -0.007550194058522876 0.0 -0.10364142892487108 -0.05748848481547238 0.0 1.295742100437648 0.42173154098253274 0.0 0.8859108655681817 0.0615693162007113 0.0 1.3330400206059363 -0.4149153578488691 0.0 1.0439577694105742 -0.020352585073768845 0.0 1.3285075363141647 0.3549275646720054 0.0 1.2636664619650737 0.3388112246222548 0.0 1.3774079826766157 -0.3293846763252958 0.0 1.2894946624504535 -0.296422756576682 0.0 0.5933554880033395 -0.17877019568722152 0.0 0.8122756546182499 -0.3423940664690271 0.0 1.023960535071256 0.5862403589906585 0.0 0.5949918359511208 0.13194918413901124 0.0 0.8150872817492795 0.3121792654900458 0.0 0.8827348770459134 0.029031534762300727 0.0 1.1103521559158882 0.06246130406883243 0.0 0.007751513378887585 -0.061833903980202894 0.0 1.3021282316089844 0.12244208441999724 0.0 0.9466454871166222 -0.30100659974542615 0.0 1.291652868244013 -0.03644822968801117 0.0 0.40343347407085306 0.010117511047192732 0.0 0.6493498752712827 0.03236607829938139 0.0 -0.14525370405824703 0.07081289184771639 0.0 1.0535447835779033 0.3143715557038514 0.0 0.9460063853168943 0.368015427459474 0.0 1.0390604878084362 0.059709364146469934 0.0 1.0910956265363196 0.008756754242979524 0.0 1.0892477317856908 0.16721527006193707 0.0 1.0491716259682804 -0.3041501256023202 0.0 1.1230787716843986 -0.5581511722126076 0.0 0.9550297373441164 -0.3830288840096301 0.0 1.0310594795307186 -0.42374531662562354 0.0 0.9649576835291234 -0.5457928721223587 0.0 0.8867052920462091 -0.41065272143986825 0.0 1.3089350273235598 0.14610327531720577 0.0 1.3467087644412263 -0.07384104734363083 0.0 0.8633381486930914 -0.23827644639553494 0.0 0.8954969308008457 -0.30891484316924595 0.0 0.8679132968985781 -0.304068775916922 0.0 0.8627946676628954 -0.24635681034260384 0.0 0.8659541290186538 -0.2494839649013105 0.0 0.9135890966158392 -0.3111037933826089 0.0 1.3104513406401195 0.21961868316675595 0.0 1.2857266405207821 -0.06718818391843495 0.0 1.321803646113491 0.2815395735274675 0.0 1.3305539559418673 -0.15320626893916628 0.0 0.0 0.0 0.0 0.0 0.0 0.0 1.3408777820852746 -0.23390246765529976 0.0 0.7261522643344075 -0.28283964312241 0.0 0.8302375233525862 -0.2227440679953888 0.0 0.8764404221506417 -0.12271476215120788 0.0 0.8699865162317482 -0.1740930696957502 0.0 0.9375 0.0 0.0 0.7500000000000001 0.0 0.0 0.7253617619924135 0.2468371886168433 0.0 0.8257377488395503 0.1812463673506974 0.0 0.7499999999999999 0.0 0.0 0.871225225190731 0.10976512779108044 0.0 0.9297209362456437 0.029113495909493414 0.0 0.851106784756908 0.028065285851850294 0.0 -0.0985194895694147 -0.015268174201875994 0.0 0.11795514929399012 0.04250682748968592 0.0 1.130859313985921 0.528760693847602 0.0 1.0256361705278814 0.4482754707461961 0.0 0.8796495153772681 0.224807342915289 0.0 1.253457383565605 0.07384035405426885 0.0 1.3186970351652574 -0.002796455185815914 0.0 0.2849234439274138 0.045961914369579714 0.0 1.316662216458018 0.03677158644997264 0.0 0.8323778747569951 0.018452041146664266 0.0 1.2386074302701056 0.04639144145443004 0.0 0.649657357396749 0.04357948438899287 0.0 0.569772094960003 0.03823469726991351 0.0 0.0626850163269086 0.17172612974923912 0.0 1.1191325496274154 0.007660687595920908 0.0 0.2976240223221569 0.10391956027865261 0.0 0.33708027160045345 0.17060755551611215 0.0 0.3861103312771872 0.11973576365855683 0.0 0.953817245662527 -0.010914439816170098 0.0 0.7026726613371839 0.04570755662119333 0.0 1.3380821160204233 -0.05442630309252247 0.0 0.613839641236715 0.019124954225046467 0.0 1.328502845286809 0.008309215887983943 0.0 0.2351280531704829 -0.007203003067695952 0.0 1.1376090788522693 0.10434352404729011 0.0 0.8825413717721834 0.16112693959456942 0.0 0.7023449790990075 -0.152157902938445 0.0 0.9971052405512317 0.0019996377838504453 0.0 1.0204586590177804 -0.15494884240623102 0.0 0.8715293114666073 -0.18871404055619756 0.0 0.8791755065484272 -0.04038082653948717 0.0 0.6862765589359062 0.06484616440987785 0.0 0.4785931516119798 0.08813389138185343 0.0 1.2179844856705333 0.1431147742738244 0.0 0.4296701047192425 0.22979146400290648 0.0 1.2714879535077108 0.09021025069617117 0.0 0.35264568468394675 0.14652461819782625 0.0 0.9149023090177251 0.19044728673404943 0.0 -0.02945107728709909 0.19066806164816297 0.0 0.9321287229543501 0.13802739557657137 0.0 0.8795780675994337 0.2764970500097401 0.0 0.8825514619970682 0.3902115525990369 0.0 0.8798759452595568 0.24603883285408076 0.0 0.9128798279968237 0.09380528889692712 0.0 0.8626373899980454 0.20288404962220558 0.0 0.9033360645997923 0.2808854677314465 0.0 0.8525478773765265 0.21177013526808558 0.0 0.7957711685831937 0.16399009226913464 0.0 0.8650273425231135 0.1441864095623583 0.0 0.0 0.0 0.0 0.838458043847029 0.15840340055504537 0.0 0.8716313480281531 0.15272581414071848 0.0 1.09943705681178 -0.009806536158577765 0.0 1.2875499061256563 0.01654326307075548 0.0 1.0958024392479515 -0.007720502908118754 0.0 1.0842203400100725 -0.13806906880359954 0.0 1.201269616318065 0.07579650519405196 0.0 0.7217309761014713 -0.16514608980935136 0.0 1.1054298000245215 -0.05359249774820046 0.0 1.2112000414313573 0.19859018719754412 0.0 1.1631938044568284 0.1705246842199512 0.0 0.9550994520772677 0.26916335688408954 0.0 1.2116043925985982 0.19038783378132665 0.0 1.1246151411920433 0.2410886345896773 0.0 -0.0452796379200636 0.3946449480755988 0.0 -0.24134652271483947 0.2562458819431753 0.0 0.943204270919575 0.3153609651379732 0.0 1.1952525580784683 -0.08308860672764488 0.0 0.7970524139371233 0.01205417006862355 0.0 0.0 0.0 0.0 1.2125744265343799 -0.04153586863314598 0.0 1.304871450728303 -0.026610203957636167 0.0 1.2225087926248699 0.04341006119485272 0.0 1.0009701431620108 -0.18147675925303433 0.0 0.7611855293306331 0.23140426891399274 0.0 1.1371902911197806 0.19568669149751408 0.0 0.9888176329677929 0.0867063858302173 0.0 0.08219390684621436 0.306967553028046 0.0 -0.2169617703032668 0.17874910411084477 0.0 -0.18343439462841646 0.27844610042557744 0.0 -0.1999016674960365 0.13588761982291164 0.0 1.1403712821463785 0.15645778231403887 0.0 0.7649049532181107 0.17536641251169913 0.0 0.7736402854702905 0.13711407544279433 0.0 0.7838470156764691 0.09351562704184704 0.0 0.6127563142347255 0.0971606057083276 0.0 0.6198036049085259 0.07886772206302023 0.0 0.3682813415527138 0.1781245142577109 0.0 0.9649094637778284 -0.17919756953819604 0.0 0.9679776470502197 0.029319501209226596 0.0 0.0 0.0 0.0 0.8302682032986238 0.3074629694376315 0.0 1.0316868093849418 0.2420500376326584 0.0 -0.2061262531951659 0.3721818936498241 0.0 1.068860511290191 0.21386183510167905 0.0 0.8996525069287493 0.09740108442946081 0.0 1.3024628955062438 -0.258025279478383 0.0 0.37515531817513037 0.34508218664677315 0.0 0.4952839339659985 0.3015902990145801 0.0 0.2293064985176872 0.37631074121980534 0.0 1.0333879746172923 0.13483284531960588 0.0 -0.25607180722856154 0.3333735262069626 0.0 -0.20648568145613372 0.3650145355491011 0.0 -0.23269429233201708 0.41699164547916545 0.0 -0.05410545774607238 0.28466247884543683 0.0 0.09510851662876268 0.23215962535156606 0.0 -0.13479827228070523 0.35799985220555747 0.0 -0.16486380421590727 0.3527766264708996 0.0 0.1478128870568537 0.24429938102611995 0.0 -0.14302221755217887 0.3398700497381093 0.0 0.5360831107795027 0.04693856298043916 0.0 0.05744406052660569 0.29021286034011473 0.0 0.16491518811545847 0.036467338393774265 0.0 0.04682319030793835 0.1902922717467072 0.0 0.4659240482305655 -0.03276761491265705 0.0 0.0 0.0 0.0 0.9262604381144963 0.22144306413044515 0.0 0.9515684114993312 0.03098580582845 0.0 0.6455147259398263 0.050998753107725454 0.0 0.6021707269763215 0.2994681764874713 0.0 0.7706364726695663 0.2912058380895583 0.0 0.9268321827803048 0.19853995999111226 0.0 1.0614203832935032 0.18321228978494913 0.0 1.2459424147241898 -0.08416330088579921 0.0 0.04232884519569151 0.3738292479934327 0.0 0.34919646555817774 0.08967782698889969 0.0 0.7749278168716375 -0.4374773877249687 0.0 0.7170200356493311 -0.1097596328945637 0.0 0.8372098428812147 -0.30912314418977455 0.0 0.9992011433622449 -0.29144052983258567 0.0 1.18816555575374 -0.48310283822977046 0.0 1.3053148779641275 -0.34631232896368425 0.0 1.0928879693518985 -0.42324648341205245 0.0 1.1726525182020133 -0.3100740642002661 0.0 1.2411465218702808 -0.407641269363544 0.0 1.2618541067594187 -0.2598089439306976 0.0 1.0288568116732875 -0.4989525043564356 0.0 1.236326455277771 -0.3059588454455889 0.0 1.3327951933690458 -0.29607223659262616 0.0 1.3403972791739438 -0.18550417353041815 0.0 1.3434065185892585 -0.22240450855593477 0.0 0.7081887060422122 -0.4951738195197511 0.0 1.2714280703898737 -0.38719008738679384 0.0 1.3259131006908826 -0.1584754926275249 0.0 0.6195927146382108 0.0831901198567328 0.0 0.5463688329200912 -0.47015227242026303 0.0 1.1193943438981526 -0.5156987442749008 0.0 0.8163564165122351 -0.12630937357425312 0.0 0.9278217738320534 -0.5372992608268512 0.0 0.320574948958866 -0.2218055330022536 0.0 1.0561096021782563 -0.3167762035252403 0.0 0.846350151245969 -0.532476499138468 0.0 0.4910201008769066 -0.38889517036344423 0.0 0.20144495423235018 -0.23680201929375877 0.0 0.848900924041399 -0.5538279474998267 0.0 0.7010720122679861 -0.531484325649322 0.0 1.0205975581637137 -0.5017698456219759 0.0 0.7413463979305034 -0.5208833955552084 0.0 0.4888816093714266 -0.44482986681390735 0.0 0.36855932559719257 -0.38212327470127117 0.0 0.6879540896189669 -0.48496949310468346 0.0 0.5785320786241595 -0.4955847594604767 0.0 0.25030415756171087 -0.30049008554328255 0.0 1.0011708232754972 0.2637016989803233 0.0 0.14081704884406354 -0.06606530801651904 0.0 0.8925836517490585 -0.4279094406832041 0.0 0.7697646186982129 -0.048638081641474235 0.0 1.111402803305752 -0.1000108510537099 0.0 0.5307379952786699 0.34505236581348064 0.0 0.9915883633601672 0.13057082718928834 0.0 0.805296764120453 0.10019158528581279 0.0 1.0656855980727606 -0.400181170498741 0.0 -0.16385210632144606 0.41612988627958064 0.0 0.49952767674048393 -0.18256571503505675 0.0 0.29617349501851603 -0.11889343109352807 0.0 -0.01584356605232977 0.061331300383898404 0.0 0.5267357514054256 -0.3030980460454998 0.0 1.0383044299579707 -0.538775498826303 0.0 0.9659812593786563 -0.2702537755083109 0.0 1.0996448285403164 -0.4834476092653859 0.0 0.9996250398865115 -0.363743394248931 0.0 0.4633981008415576 -0.4392209604264003 0.0 0.8070458492321542 -0.4707153979348611 0.0 0.6802627858531434 -0.3898596755434868 0.0 0.7971268799324744 -0.35722155586609505 0.0 0.7285582395288525 -0.43448991343067295 0.0 1.1636534532480916 0.0700138757995218 0.0 0.6280735481095943 -0.43678749499929875 0.0 0.55024745503784 -0.41939474892063894 0.0 0.584116827495259 -0.43796437159592955 0.0 0.5731629176572276 -0.36315166339683735 0.0 0.2928223946243319 0.23680145509634973 0.0 1.040067904249351 -0.4393665912521455 0.0 0.9684622314825699 -0.4338366488197665 0.0 1.1673548009130723 -0.4606250440097744 0.0 0.9401911770002291 -0.5004289556211605 0.0 0.8790231057098327 -0.2612298359376489 0.0 1.0399822795388747 -0.3379516682118389 0.0 1.122521252032917 -0.39124133916474163 0.0 1.1982412986866209 -0.4031551985770981 0.0 0.9139968220559327 -0.3531011264221198 0.0 0.8462124508997755 -0.30043593985999517 0.0 0.7241573912379996 -0.22831824623020144 0.0 0.7844055570267895 -0.278957749514586 0.0 0.7326835698435531 -0.32801871642704805 0.0 0.7956301558758392 -0.1694902628694384 0.0 0.2738409761776552 0.30175115617890086 0.0 0.6695823439285914 0.21240308115370782 0.0 -0.052579516750112805 0.2975647193637243 0.0 0.02005966230344071 0.16149379520793503 0.0 -0.09162018475596058 0.22149128872791107 0.0 1.0912737464237212 0.11756528927962051 0.0 0.8650092116295434 0.061735543681548884 0.0 1.2394778517806702 -0.1409624421806889 0.0 1.0459376443295496 -0.24542974238406917 0.0 0.6629848864297216 -0.3104814760287135 0.0 0.558947271231161 -0.24573972721830964 0.0 0.43357170552295055 0.1084386263190776 0.0 0.03274504229019807 -0.0085972503622717 0.0 1.0156881419481794 0.11632446102810445 0.0 1.2044646896963713 -0.1931054195841328 0.0 0.7060835111668136 -0.2370471748402012 0.0 1.000602775807957 -0.254296463894327 0.0 0.5480913179895206 0.14901512316098342 0.0 0.9659612468229849 0.02724042800929171 0.0 0.14640698546590153 0.06212919400197196 0.0 0.5064581356469826 0.003133266910977639 0.0 0.9996312536297388 0.10934039518407308 0.0 1.0386791970939226 -0.13266085821514784 0.0 0.9260513181541066 -0.22835459622682816 0.0 0.7061937305466564 0.0682786703018299 0.0 0.8365789468398983 -0.008263961832326767 0.0 0.8982135896851335 0.04033067246699239 0.0 1.0525156654372982 -0.042404067170977035 0.0 0.9203511824404953 -0.08467267370849434 0.0 0.7506810127472322 -0.044928155009832986 0.0 0.43041556307194306 -0.09563116645014741 0.0 0.7748390408997343 -0.13258679911456314 0.0 0.0 0.0 0.0 0.9366651268487634 0.039914990232047906 0.0 0.7287162372094238 -0.13593338540048341 0.0 0.2172264408759286 -0.20878053083761774 0.0 0.9496794405682676 0.004878568729838228 0.0 0.6746789106229705 -0.11554357113019975 0.0 1.0021849955480566 -0.04804988221883077 0.0 0.4058146131872162 -0.18999100751270953 0.0 1.1158310343774493 0.0010785075172792845 0.0 0.5359697406942923 -0.28234322249515365 0.0 0.3146473016695457 -0.35630436222919193 0.0 0.9944241476482012 -0.06985063760177014 0.0 0.5301240917779021 -0.21814046540882434 0.0 1.0268777830167306 -0.044587710321076904 0.0 0.7729267721988811 -0.16229565186579598 0.0 0.8734044317527082 -0.11927272165416286 0.0 0.9359359049756912 -0.05014131356988725 0.0 0.8811025386519048 -0.07301111240603972 0.0 0.9717430876337504 -0.0153349445960724 0.0 0.2624889770893051 -0.3180562664773882 0.0 0.867370941321345 0.056266322924794825 0.0 1.1310133700124279 0.012781706486552422 0.0 1.1451995855900639 0.03480397650191702 0.0 1.162134319460998 0.22862389575913827 0.0 1.190934326910658 0.15448081377478484 0.0 1.0080078498188583 -0.012509995448672323 0.0 0.8452227638815311 0.010126312212741807 0.0 1.1934713320910852 0.1542403421465145 0.0 1.0076537314761014 0.11327083252000358 0.0 1.0397019444555755 0.01161363689860435 0.0 0.7214869731241181 0.019899039858177838 0.0 1.2332149633188805 0.20098240127032596 0.0 1.249205425046045 0.3010609893859783 0.0 1.1676872643120217 0.0825384408553216 0.0 1.0122234069898384 0.16519902384296506 0.0 0.0 0.0 0.0 0.6501719216617656 -0.02288630162052289 0.0 1.0831509269694706 0.40073735304815283 0.0 1.1749969980433337 0.37866314804366397 0.0 1.119777253408412 -0.3936422976551328 0.0 0.8675780497029445 -0.1967668792210123 0.0 0.9799067687798055 -0.20496218501878805 0.0 0.8959438142588201 -0.09282707493502167 0.0 1.2732817394989315 0.1402869266149049 0.0 1.278718570179942 0.10527074305304628 0.0 1.3127582219952438 0.0588653439894138 0.0 1.110695514807573 0.05234875480343268 0.0 1.1239294073649142 0.094662450725433 0.0 -0.18878808620551477 0.05967058089621529 0.0 -0.1372159615477844 0.20471640012702583 0.0 0.0002974791535686365 0.22823221651044756 0.0 -0.06954917510190871 0.13594446956547918 0.0 0.10198862157530202 0.11193717231481129 0.0 -0.14051838841918451 0.0913037249097613 0.0 -0.03410861103827954 0.08374361609978316 0.0 0.08639806641199893 0.062964692354714 0.0 -0.03417118097787714 0.056228770421696696 0.0 -0.092227135841854 0.05788140517013484 0.0 0.9712601416816479 0.1108555649837757 0.0 0.1285033359269432 -0.12280815730052792 0.0 0.8853390776039909 -0.2026719135721244 0.0 0.953604251133337 -0.2845097630073094 0.0 0.9285165350531978 -0.2929836992550776 0.0 0.8694516970367252 -0.20272440591794091 0.0 0.7259914324300569 0.03119066315438312 0.0 0.8346205479449332 -0.19000207152299575 0.0 0.7643620915847178 -0.04265582162577217 0.0 0.7881960147666334 -0.0970769939965573 0.0 0.8217413269791187 -0.13894221786074956 0.0 0.6781766964385431 -0.07817090217927995 0.0 0.7527363182415195 -0.09274646759766965 0.0 0.700419307888802 -0.1519738324564951 0.0 0.7293586406608974 -0.017182292368012927 0.0 0.6816693774449313 0.07156648687227046 0.0 0.6352914708390861 -0.007610472656743849 0.0 0.621348085719905 0.024726118122021103 0.0 0.6960636352641459 0.040002549558628975 0.0 0.5196687195817336 -0.11661459175283491 0.0 0.5835841356078709 0.028624571882017107 0.0 0.5316268370866856 -0.04097803236982868 0.0 0.5486087335309999 0.11795712629475097 0.0 0.6119825859404086 0.2432009178329854 0.0 0.504542424424708 -0.014255269535892078 0.0 0.5816306124045674 -0.0015334969157280037 0.0 0.5100417472643638 0.06491623065636593 0.0 0.5426655309253197 0.025527116390424518 0.0 0.6050645384957415 0.14748498046323677 0.0 0.7466298820014565 0.3114505529565931 0.0 0.7522718088395417 0.14723259686950202 0.0 0.5273862418316574 0.06311425825236257 0.0 0.531742806746894 0.13836050500024208 0.0 0.58549