<?xml version="1.0"?>
<VTKFile type="UnstructuredGrid"  version="0.1"  >
<UnstructuredGrid>
<Piece  NumberOfPoints="1289" NumberOfCells="2413">
<Points>
<DataArray  type="Float64"  NumberOfComponents="3"  format="ascii">0 0 0  0 0.41 0  2.2 0.41 0  2.2 0 0  0.1 0.1 0  0.1 0.3 0  0.8 0.3 0  0.8 0.1 0  0.25 0.2 0  0.248976 0.210065 0  0.245948 0.219718 0  0.241038 0.228563 0  0.234448 0.23624 0  0.226448 0.242432 0  0.217365 0.246888 0  0.207571 0.249423 0  0.197468 0.249936 0  0.187467 0.248404 0  0.17798 0.24489 0  0.169395 0.239539 0  0.162062 0.232569 0  0.156283 0.224265 0  0.152293 0.214968 0  0.150257 0.205058 0  0.150257 0.194942 0  0.152293 0.185032 0  0.156283 0.175735 0  0.162062 0.167431 0  0.169395 0.160461 0  0.17798 0.15511 0  0.187467 0.151596 0  0.197468 0.150064 0  0.207571 0.150577 0  0.217365 0.153112 0  0.226448 0.157568 0  0.234448 0.16376 0  0.241038 0.171437 0  0.245948 0.180282 0  0.248976 0.189935 0  1.1 0 0  1.1 0.41 0  0.1 0.2 0  0.45 0.1 0  0.45 0.3 0  0.55 0 0  0.275 0.1 0  0.275 0.3 0  0.275 0 0  0.55 0.41 0  0 0.205 0  0.825 0 0  0.825 0.41 0  0.275 0.41 0  0.1 0.15 0  0.1875 0.1 0  0.1 0.25 0  0.1875 0.3 0  0.132322 0.2 0  0.241426 0.253518 0  0.241426 0.146482 0  0.264574 0.17974 0  0.264574 0.22026 0  0.138434 0.187348 0  0.153372 0.150948 0  0.148413 0.164094 0  0.176495 0.136535 0  0.22768 0.143571 0  0.138434 0.212652 0  0.148413 0.235906 0  0.176495 0.263465 0  0.22768 0.256429 0  0.23125 0.3 0  0.24769 0.24094 0  0.23125 0.1 0  0.24769 0.15906 0  0.26253 0.193641 0  0.190482 0.137872 0  0.166753 0.146661 0  0.157737 0.244461 0  0.190482 0.262128 0  0.203107 0.261264 0  0.253635 0.22977 0  0.203107 0.138736 0  0.253635 0.17023 0  0.261028 0.206206 0  0.167707 0.251809 0  0.143629 0.224191 0  0.215302 0.2591 0  0.270465 0.245894 0  0.215302 0.1409 0  0.270465 0.154106 0  0.284052 0.202587 0  0.14375 0.3 0  0.209375 0.3 0  0.225966 0.278501 0  0.209375 0.1 0  0.225966 0.121499 0  0.211613 0.273759 0  0.211613 0.126241 0  0.143629 0.175809 0  0.1 0.175 0  0.133484 0.164832 0  0.144491 0.249539 0  0.1 0.225 0  0.133484 0.235168 0  0.3625 0.3 0  0.25691 0.253381 0  0.25691 0.146619 0  0.277205 0.188698 0  0.184724 0.275712 0  0.237372 0.268285 0  0.184724 0.124288 0  0.237372 0.131715 0  0.197578 0.273149 0  0.193656 0.286994 0  0.197578 0.126851 0  0.193656 0.113006 0  0.122953 0.187671 0  0.118362 0.153758 0  0.155372 0.258107 0  0.122953 0.212329 0  0.118362 0.246242 0  0.276394 0.27264 0  0.276394 0.12736 0  0.280965 0.170013 0  0.253125 0.3 0  0.14375 0.1 0  0.253125 0.1 0  0.269489 0.26014 0  0.269489 0.13986 0  0.303639 0.184297 0  0.165625 0.3 0  0.134742 0.273113 0  0.257831 0.274737 0  0.255279 0.128499 0  0.3625 0.1 0  0.165625 0.1 0  0.162031 0.132368 0  0.134955 0.126405 0  0.149334 0.125568 0  0.142936 0.139597 0  0.12695 0.140259 0  0.242514 0.285501 0  0.242514 0.114499 0  0.1 0.125 0  0.117483 0.12555 0  0.11154 0.139776 0  0.121875 0.1 0  0.109143 0.1125 0  0.126805 0.114 0  0.220313 0.29129 0  0.351562 0.287369 0  0.207222 0.2866 0  0.220312 0.10871 0  0.1375 0 0  0.20625 0 0  0.207222 0.1134 0  0.11722 0.17118 0  0.1 0.1625 0  0.0778409 0.16875 0  0.0862762 0.15625 0  0 0.15375 0  0 0.1025 0  0.11722 0.22882 0  0.1 0.2375 0  0 0.3075 0  0.0862762 0.23125 0  0.0598995 0.222547 0  0.0860223 0.2125 0  0.289584 0.181469 0  0.300267 0.16446 0  0.163832 0.269071 0  0.149597 0.273325 0  0.1 0.275 0  0.268498 0.285953 0  0.31875 0.3 0  0.294154 0.254672 0  0.296875 0.3 0  0.293558 0.271845 0  0.285095 0.286799 0  0.324298 0.264316 0  0.307866 0.263745 0  0.317093 0.234901 0  0.315485 0.281219 0  0.316547 0.250625 0  0.344693 0.243731 0  0.331592 0.251147 0  0.35129 0.270663 0  0.338689 0.263683 0  0.340625 0.3 0  0.249849 0.264383 0  0.265097 0.11422 0  0.284688 0.156136 0  0.242188 0.324017 0  0.0856613 0.2625 0  0.132812 0.0612217 0  0.264062 0.0612217 0  0.198437 0.07598340000000001 0  0.0860223 0.1375 0  0.0794526 0.191089 0  0.285228 0.140397 0  0.298655 0.148737 0  0.31875 0.1 0  0.327335 0.15374 0  0.296875 0.1 0  0.312289 0.155283 0  0.313348 0.135607 0  0.321802 0.173916 0  0.298433 0.134116 0  0.112124 0.2625 0  0.127526 0.259083 0  0.121875 0.3 0  0.0682687 0.241503 0  0.1 0.2875 0  0.117762 0.28125 0  0.107813 0.3 0  0.103906 0.313849 0  0.0778409 0.28125 0  0.1375 0.41 0  0.0862762 0.29375 0  0.08886860000000001 0.24375 0  0.307812 0.338778 0  0.307812 0.292227 0  0.33216 0.279164 0  0.387888 0.266414 0  0.264063 0.31948 0  0.110937 0.07598340000000001 0  0.242188 0.07598340000000001 0  0.319914 0.11839 0  0.340625 0.1 0  0.334448 0.133793 0  0.329687 0.108539 0  0.346259 0.118491 0  0.360334 0.173636 0  0.327539 0.205033 0  0.132812 0.288712 0  0.362436 0.278836 0  0.368105 0.259418 0  0.4125 0.41 0  0.329687 0.324017 0  0.329687 0.292306 0  0.285938 0.318952 0  0.417187 0.338778 0  0.324481 0.14148 0  0.351562 0.106771 0  0.40625 0.1 0  0.341028 0.168342 0  0.319221 0.190479 0  0.335292 0.184501 0  0.305563 0.20794 0  0.220313 0.31948 0  0.132812 0.332772 0  0.0865876 0.311259 0  0.0598995 0.302453 0  0.0906541 0.343255 0  0.353543 0.255837 0  0.36574 0.237633 0  0.405007 0.254279 0  0.275795 0.352123 0  0.4125 0 0  0.35493 0.137394 0  0.366563 0.120618 0  0.35917 0.205246 0  0.198438 0.318952 0  0.0626109 0.263892 0  0.40625 0.3 0  0.354809 0.155936 0  0.386512 0.146872 0  0.373101 0.159939 0  0.384375 0.1 0  0.343394 0.19929 0  0.350682 0.185683 0  0.368101 0.189748 0  0.344016 0.221511 0  0.391108 0.213329 0  0.376279 0.204783 0  0.398843 0.182768 0  0.375804 0.222746 0  0.390665 0.196958 0  0.394004 0.23518 0  0.359883 0.222828 0  0.419908 0.204359 0  0.404243 0.204783 0  0.412615 0.224526 0  0.20625 0.41 0  0.165625 0.325257 0  0.0347982 0.244954 0  0.379558 0.247154 0  0.34165 0.147603 0  0.372264 0.136992 0  0.388988 0.121989 0  0.373437 0.108554 0  0.351562 0.31948 0  0.391367 0.16527 0  0.399572 0.223324 0  0.452011 0.227371 0  0.40877 0.239392 0  0.431491 0.237337 0  0.421224 0.250459 0  0.449619 0.262098 0  0.418865 0.276779 0  0.437063 0.252274 0  0.415673 0.263227 0  0.430988 0.266772 0  0.402767 0.273419 0  0.452967 0.244883 0  0.428125 0.3 0  0.408502 0.286186 0  0.384375 0.3 0  0.392267 0.285807 0  0.465927 0.219339 0  0.43489 0.283846 0  0.376424 0.286289 0  0.625 0.3 0  0.473533 0.205186 0  0.461713 0.255517 0  0.5375 0.3 0  0.465725 0.235405 0  0.44631 0.201425 0  0.471875 0.3 0  0.494307 0.227729 0  0.459448 0.206736 0  0.462294 0.180792 0  0.478933 0.227536 0  0.486793 0.21381 0  0.486322 0.251373 0  0.50065 0.215318 0  0.54005 0.175389 0  0.474633 0.189893 0  0.512916 0.208697 0  0.49531 0.199967 0  0.475889 0.175275 0  0.625 0.1 0  0.459311 0.153933 0  0.513645 0.242704 0  0.392892 0.248539 0  0.374815 0.271913 0  0.365974 0.14871 0  0.395312 0.109184 0  0.417061 0.123981 0  0.483196 0.277003 0  0.381967 0.179632 0  0.429898 0.219374 0  0.433473 0.206165 0  0.43149 0.181038 0  0.444208 0.215487 0  0.472985 0.247309 0  0.49375 0.3 0  0.475579 0.262714 0  0.49916 0.274293 0  0.501175 0.184809 0  0.514164 0.225681 0  0.543648 0.214977 0  0.5341630000000001 0.23481 0  0.527396 0.216171 0  0.5375 0.1 0  0.534548 0.202315 0  0.561545 0.192513 0  0.5494289999999999 0.201221 0  0.570923 0.218346 0  0.412582 0.149833 0  0.489327 0.264745 0  0.502439 0.254775 0  0.462391 0.271166 0  0.496775 0.241732 0  0.5294410000000001 0.268606 0  0.482812 0.291099 0  0.46879 0.285038 0  0.452663 0.284065 0  0.51789 0.257882 0  0.53408 0.252026 0  0.560142 0.243543 0  0.545708 0.243474 0  0.547532 0.229019 0  0.55282 0.265323 0  0.398971 0.153424 0  0.400349 0.135684 0  0.410135 0.168145 0  0.428823 0.161323 0  0.415266 0.183779 0  0.329687 0.0810483 0  0.395312 0.0612217 0  0.373437 0.318952 0  0.439062 0.324017 0  0.561816 0.229354 0  0.585029 0.239287 0  0.431827 0.139854 0  0.446796 0.168929 0  0.351562 0.07598340000000001 0  0.395313 0.318944 0  0.54337 0.150762 0  0.460937 0.31948 0  0.418412 0.137529 0  0.428125 0.1 0  0.442783 0.152332 0  0.450742 0.134294 0  0.373437 0.0805201 0  0.384383 0.342558 0  0.482812 0.318952 0  0.429239 0.127457 0  0.444274 0.117405 0  0.426548 0.113815 0  0.49375 0.1 0  0.488954 0.113984 0  0.457973 0.121842 0  0.471621 0.137346 0  0.515625 0.325257 0  0.48125 0.41 0  0.417187 0.07598340000000001 0  0.496363 0.126778 0  0.479043 0.155715 0  0.439062 0.0805201 0  0.481795 0.126919 0  0.471875 0.1 0  0.489227 0.142159 0  0.515625 0.1 0  0.520062 0.147117 0  0.501244 0.161791 0  0.505431 0.112984 0  0.505344 0.14029 0  0.526563 0.119081 0  0.5181750000000001 0.131908 0  0.539868 0.136937 0  0.460937 0.108383 0  0.474242 0.114415 0  0.460937 0.0810483 0  0.487841 0.167168 0  0.526563 0.0612217 0  0.526563 0.106406 0  0.537619 0.112743 0  0.58125 0.1 0  0.559375 0.1 0  0.482812 0.08105569999999999 0  0.471883 0.0587655 0  0.570312 0.129396 0  0.548437 0.07598340000000001 0  0.504687 0.08105569999999999 0  0.49375 0.0470127 0  0.570312 0.112663 0  0.592798 0.12103 0  0.553986 0.12103 0  0.570312 0.0805201 0  0.48125 0 0  0.114787 0.2 0  0.160769 0.284765 0  0.175816 0.288361 0  0.162602 0.116048 0  0.154687 0.07598340000000001 0  0.176562 0.0805201 0  0.0598995 0.147547 0  0.307812 0.109924 0  0.291279 0.117157 0  0.278491 0.112989 0  0.285937 0.07598340000000001 0  0.307812 0.0805201 0  0.296928 0.196743 0  0.318141 0.218507 0  0.330208 0.227509 0  0.301397 0.225668 0  0.302706 0.241401 0  0.292574 0.21424 0  0.282762 0.230935 0  0.284351 0.244775 0  0.269553 0.23261 0  0.278572 0.217242 0  0.226924 0.342606 0  0.446928 0.185396 0  0.515625 0.3 0  0.504687 0.288879 0  0.515256 0.276534 0  0.529479 0.285328 0  0.58125 0.3 0  0.541969 0.272936 0  0.559375 0.3 0  0.556796 0.282529 0  0.543473 0.287206 0  0.581429 0.267774 0  0.566728 0.271171 0  0.570869 0.255585 0  0.577404 0.283865 0  0.603125 0.3 0  0.597531 0.28035 0  0.570312 0.338778 0  0.592188 0.292492 0  0.603513 0.256094 0  0.614063 0.286265 0  0.610329 0.27064 0  0.632708 0.251285 0  0.657223 0.261594 0  0.618789 0.257807 0  0.614188 0.22987 0  0.630935 0.265614 
[...]
<PointData  Vectors="v"> 
	<DataArray  type="Float64"  Name="v"  NumberOfComponents="3" format="ascii">
0.0 0.0 0.0 0.0 0.0 0.0 0.0 0.0 0.0 0.0 0.0 0.0 0.8037148355529095 -0.1968525970629803 0.0 0.8357604762372172 0.18370627291011668 0.0 0.7279630366155532 0.17719876761332837 0.0 0.6297964053257662 0.022616854056656366 0.0 0.0 0.0 0.0 0.0 0.0 0.0 0.0 0.0 0.0 0.0 0.0 0.0 0.0 0.0 0.0 0.0 0.0 0.0 0.0 0.0 0.0 0.0 0.0 0.0 0.0 0.0 0.0 0.0 0.0 0.0 0.0 0.0 0.0 0.0 0.0 0.0 0.0 0.0 0.0 0.0 0.0 0.0 0.0 0.0 0.0 0.0 0.0 0.0 0.0 0.0 0.0 0.0 0.0 0.0 0.0 0.0 0.0 0.0 0.0 0.0 0.0 0.0 0.0 0.0 0.0 0.0 0.0 0.0 0.0 0.0 0.0 0.0 0.0 0.0 0.0 0.0 0.0 0.0 0.0 0.0 0.0 0.0 0.0 0.0 0.0 0.0 0.0 0.0 0.0 0.0 0.0 0.0 0.0 0.0 0.0 0.0 0.0 0.0 0.0 0.7661089690962137 -0.02552717237915477 0.0 0.8830514639146555 0.16646175325387247 0.0 1.2875864238768278 -0.1462120436987855 0.0 0.0 0.0 0.0 1.326206064597082 -0.010224193572731296 0.0 1.2692033415971204 0.037514624929251686 0.0 0.0 0.0 0.0 0.0 0.0 0.0 1.0 0.0 0.0 0.0 0.0 0.0 0.0 0.0 0.0 0.0 0.0 0.0 0.854904848053607 -0.24655862356236577 0.0 1.1782157824235902 -0.29478112384244687 0.0 0.8640573692346906 0.204238886660404 0.0 1.1547795796341405 0.2817073209418007 0.0 0.4329022188111471 -0.036814676139077955 0.0 0.2194392976416768 0.0010294033800845976 0.0 0.20426092618342412 -0.02131889438928167 0.0 -0.025436187960443894 -0.2074225022447752 0.0 -0.06151982597628732 -0.06889890118111784 0.0 0.3451656176155372 -0.3186805132341435 0.0 0.8972649434050562 -0.6977422560011229 0.0 0.6709758141945793 -0.7266276416254862 0.0 1.2797292810561174 -0.61611910553245 0.0 0.3478199002600172 0.009958598515556841 0.0 0.32923383113280374 0.23468406501537814 0.0 0.6412906732232447 0.6433288072135839 0.0 1.2133504794681418 0.583270010305379 0.0 0.3475929351407413 -0.019533540990318128 0.0 1.260970433495133 0.1520872577374652 0.0 -0.003147840901086503 0.02246344113796947 0.0 1.297771662284102 -0.1425760012132613 0.0 -0.012249793122219833 -0.06775078516008333 0.0 -0.03213842318847669 -0.1821325557611467 0.0 1.2789171627401816 -0.40904761288195307 0.0 1.1651576267240413 -0.7543577907009287 0.0 0.8584533731432501 0.7544672673786117 0.0 1.2463456029946276 0.3903553134247313 0.0 0.9507954381498602 0.1573316722515559 0.0 -0.034203905073884794 0.004848732747439538 0.0 0.9764073308247474 -0.16323986603567672 0.0 -0.03420863068567485 -0.12247811204309798 0.0 -0.028692843027806596 -0.12455032811687378 0.0 1.052984250180984 0.7121358326712613 0.0 0.4368983421099303 0.4993065351784666 0.0 0.5911022173742889 0.02030528865760142 0.0 0.08835585219439106 -0.04495318795703782 0.0 0.5994657618393251 -0.027027543057549314 0.0 0.14850319559543945 -0.11457677188828314 0.0 -0.12985412184719217 -0.18944641401194415 0.0 0.9590313439032889 0.2772374376501857 0.0 1.2370888106328113 0.21257393649234743 0.0 1.3087637870007691 0.1677813274866588 0.0 1.251184731518054 -0.22454146878882114 0.0 1.3510260801887224 -0.17510773645053068 0.0 1.319658333473233 0.2258144573327516 0.0 1.3654060773197085 -0.23368264466074995 0.0 0.4658046124979695 -0.5866158659339158 0.0 0.8113265523463596 -0.16128893886446904 0.0 0.6930645201084914 -0.44993029572767196 0.0 0.8805520846037344 0.5660013605691536 0.0 0.8006742963404253 0.11732877005747991 0.0 0.676287337608381 0.38688664866968014 0.0 1.1861911063803159 -0.018371178810315403 0.0 0.25276537605657207 -0.017996655419774327 0.0 0.261572672844125 -0.03642788522332458 0.0 -0.06107984604345653 -0.22445830746179748 0.0 1.2962205523774257 0.4025090982437213 0.0 0.9431786113674137 0.03663660098325002 0.0 1.3344081901528464 -0.43271065378660895 0.0 0.9923684869561469 -0.046278538206957515 0.0 1.3348666667604754 0.33343086454129395 0.0 1.2610135678543746 0.31664695174808194 0.0 1.3728029261507988 -0.3504619767743603 0.0 1.2931201787150208 -0.31751311185142644 0.0 0.5947588807260787 -0.19243522827164986 0.0 0.8147035314593112 -0.3522782300148723 0.0 1.0201326485037732 0.5728187515245402 0.0 0.5938364794903359 0.1184602764623227 0.0 0.8130267383218643 0.3023723978788869 0.0 0.9362816427207306 -0.03644124668957974 0.0 1.0659680018029312 0.0011476994400149716 0.0 0.055180871990546804 -0.20847226974578822 0.0 1.2781440654548746 0.08588223089064316 0.0 0.9489770034712239 -0.31207323987172414 0.0 1.3154765029716926 -0.07116269784125182 0.0 0.48772651098420966 -0.04758077115840373 0.0 0.558406090026833 -0.02408101247254123 0.0 -0.03527255953811265 -0.2175843758089301 0.0 1.0500755505673651 0.29901006194025076 0.0 0.9441108930168299 0.3574579812382139 0.0 1.082489009241781 0.018503562504059504 0.0 1.0417289455452914 -0.025656183347446796 0.0 1.2203440788872522 0.25026948287214745 0.0 1.0534022077657528 -0.31902997248087234 0.0 1.1269293586322608 -0.5717361818607213 0.0 0.9573183255210561 -0.39385821316731345 0.0 1.0340735734849813 -0.43661941199703747 0.0 0.9690069703245602 -0.5580061494990153 0.0 0.8892678813950274 -0.42079227743514935 0.0 1.3067219276267317 0.10812374524898194 0.0 1.3518143128549167 -0.10989453006873873 0.0 0.86414946350816 -0.24267872759561268 0.0 0.8971673838954161 -0.316485726313325 0.0 0.8694958408907305 -0.3112130723309961 0.0 0.8640913405140083 -0.253595914123773 0.0 0.8668669534203969 -0.2550281024000377 0.0 0.9154429806150177 -0.3198201678458803 0.0 1.3032531592259304 0.1890371534026197 0.0 1.074700029631392 -0.03237121542758502 0.0 1.3191609163575173 0.2547612190757708 0.0 1.3386826315868954 -0.18224513579628263 0.0 0.0 0.0 0.0 0.0 0.0 0.0 1.3450182426898492 -0.25958356550765455 0.0 0.7281721778014697 -0.2936869783196531 0.0 0.831498572692919 -0.22879603544056454 0.0 0.8771002731808007 -0.12469008895079257 0.0 0.8705054023450146 -0.17704720804736446 0.0 0.9375 0.0 0.0 0.7500000000000001 0.0 0.0 0.7235929983903078 0.23622169448708139 0.0 0.8247588877445151 0.17513857365535762 0.0 0.7499999999999999 0.0 0.0 0.8705796363998451 0.10618181939498841 0.0 0.9295584364667168 0.029876891546497537 0.0 0.8511853214863887 0.0243052190285085 0.0 -0.021331633463085198 -0.23060011701062755 0.0 0.1925156554070295 -0.1705780397651428 0.0 1.1282686128968762 0.5143142351258856 0.0 1.0230232812596392 0.4358106184801967 0.0 0.8789160678767785 0.22036231417674357 0.0 1.2463227373365435 0.02377196103550494 0.0 1.217059030127866 -0.01780193430430224 0.0 0.3023506230798989 -0.1100753469954682 0.0 1.249190628353898 -0.0005429823586540689 0.0 0.8600565624498968 -0.06942207806758158 0.0 1.2150694921748213 -0.012143460555040113 0.0 0.5430018460288564 -0.10468788932545899 0.0 0.5602049439846933 -0.10710225215774082 0.0 -0.09998782632217919 -0.13774643910461465 0.0 1.0380418449138695 -0.0624702344397203 0.0 0.16800550507170828 -0.12666513506565064 0.0 0.0270497170038834 -0.07719472079100041 0.0 0.1708470767826441 -0.1112414747419774 0.0 0.6873673374813629 -0.05090011346520159 0.0 0.49877748882126777 -0.08574478335673154 0.0 1.1969052899948023 -0.025821762068148405 0.0 0.686548372021446 -0.009712170455671753 0.0 1.336734410211547 -0.04010435400776387 0.0 0.22859269190456705 -0.13521180608532973 0.0 1.1133457004754035 0.08061937045671143 0.0 0.8823180926246821 0.15867125583242578 0.0 0.7030829171855477 -0.15825073330064512 0.0 1.0312904162011103 -0.01465971208442351 0.0 1.0306866180875527 -0.17086529527350477 0.0 0.8720064294358443 -0.1911613712171376 0.0 0.8793783274471845 -0.04292390221255806 0.0 0.6058900761897984 -0.029206794454869612 0.0 0.456439217679033 -0.06745251256356835 0.0 1.3158154357394365 0.13033468212756782 0.0 0.5537502155478972 0.0020279641347256223 0.0 1.3344921457476568 0.053379365873602966 0.0 0.415652619848355 -0.07834336604420591 0.0 0.929268697222667 0.06588920682434705 0.0 0.15082913875448728 -0.13420419791675336 0.0 0.8881504676439811 0.024916023085922754 0.0 0.8785016459633291 0.26925245037814965 0.0 0.8803543242841628 0.3799685478094194 0.0 0.8786282100977978 0.2385077955246749 0.0 0.9127332014235611 0.09348888351823684 0.0 0.8620716959294741 0.19864485981926114 0.0 0.9021740770286674 0.2734176977126769 0.0 0.8520621985266432 0.2067160705839662 0.0 0.7956909340451332 0.1596752795192161 0.0 0.8650997345981798 0.14323147978576056 0.0 0.0 0.0 0.0 0.8383977500871495 0.15645825347482037 0.0 0.8711244687933085 0.14916534873930914 0.0 1.0455273437477592 -0.006516792826026181 0.0 1.206119260778038 -0.03296258382557649 0.0 0.9517500572371258 -0.06327063847383643 0.0 0.61794244393063 0.04231387362637517 0.0 1.1650042246457983 0.049868618549984305 0.0 0.7221343355108313 -0.16972860447716245 0.0 1.1293387707039462 -0.07494097922532893 0.0 1.3120249369138017 0.13659876905275006 0.0 1.2883596868661584 0.19642623573767334 0.0 1.0905095467515642 0.17879564544285875 0.0 1.3378148653461353 0.18040522639392248 0.0 1.3117239573728854 0.2538714928500349 0.0 0.3317116034246096 0.1643251039273552 0.0 -0.23413980289159 -0.16238124667631693 0.0 0.9415948207818884 0.3054593167748446 0.0 0.9018396203684742 -0.027849804320739364 0.0 0.3887156296069054 -0.00030769816474640615 0.0 0.0 0.0 0.0 1.1360626920748584 -0.014816079540574617 0.0 1.1691258215293272 -0.03746398402738948 0.0 1.170672788381218 0.021819031599908112 0.0 1.0577244136006867 -0.07605181702916065 0.0 0.8275531878305019 0.07061394332020163 0.0 1.2892191229187813 0.25287229067837075 0.0 1.0434941647875673 0.27093348062236733 0.0 0.34143567219762183 0.014485110095839308 0.0 -0.09929723693165855 -0.18650979592569913 0.0 0.023296553776471107 -0.09925143788916145 0.0 -0.20130653917787855 -0.19751763205019904 0.0 1.1257680229266276 0.13278169171939969 0.0 0.7632710627985738 0.1682843008338843 0.0 0.7739481705166438 0.1352241669124738 0.0 0.7840232247723625 0.09453945052141915 0.0 0.61330828620273 0.09547462967501838 0.0 0.2823938947787102 -0.04557114167639552 0.0 -0.06944499040905876 0.04567266337379104 0.0 0.4226235386353743 0.1471478292918777 0.0 0.9316678293893949 0.02207141684331958 0.0 0.0 0.0 0.0 1.0933351007761998 0.28787229667215397 0.0 1.2619428543694304 0.3366362619966672 0.0 -0.1998594004735837 0.04570464364625721 0.0 1.0591702786772559 0.1949991010187113 0.0 0.8997478735395413 0.09799723506769728 0.0 1.2334101660799446 -0.03977617799675611 0.0 0.6831060344199397 0.19757150770087953 0.0 0.9748195591171268 0.4486563169954371 0.0 0.6852722482374725 0.3350410573492442 0.0 1.1395580349983319 0.27662005124402544 0.0 -0.17160613004159925 -0.07304885995014707 0.0 0.05491752293534964 0.018371966832867122 0.0 0.05184028824542925 0.1694811326902703 0.0 -0.2493354586113639 -0.0743928409525195 0.0 -0.1638246279893669 0.2898539230124049 0.0 -0.1437372649498286 0.19345785662076856 0.0 0.3043793604687314 0.452295973719674 0.0 -0.22276210564360466 0.14646542734137408 0.0 0.019763239083680526 0.3439594267062468 0.0 -0.02729623173561903 0.21580911253338309 0.0 -0.2511527673911812 0.01947292716297499 0.0 0.010229653731371021 0.5031432937363907 0.0 -0.04155598869223737 0.42761713240208826 0.0 -0.06161508556141766 0.36561119904316364 0.0 0.0 0.0 0.0 0.9217074682251786 0.20892120603200695 0.0 0.9515880037032134 0.03317639479132838 0.0 0.14642620049579552 0.07924832772441302 0.0 0.790607128453122 0.14122870588990635 0.0 1.1187608405829728 0.38599998854731093 0.0 1.1689099037074755 0.3867543847524252 0.0 1.2206708877150567 0.3118106639964981 0.0 1.1607915982170343 -0.019800640817323814 0.0 0.6332439833003781 0.45211301239712254 0.0 -0.13250893488829224 0.30481991080266174 0.0 0.30815977860950683 0.3196244567871041 0.0 0.13592109165547292 0.25553645317717083 0.0 0.2790611491910189 0.29527649334331824 0.0 0.46328555223692097 0.1852348208457937 0.0 0.9193776391262619 0.008866045005714893 0.0 0.993469167567409 0.009121053070251236 0.0 0.6337044115803675 0.14104817693680555 0.0 0.6900911299662275 0.09561421257168756 0.0 0.868164770232599 0.04629145511660553 0.0 0.8480655007348554 0.03515535434597808 0.0 0.6383356723990801 0.1361763511040505 0.0 1.265252563164118 -0.0798892881574326 0.0 1.1164603314282349 -0.013278628579636754 0.0 1.201159872700266 -0.02024229316210838 0.0 1.070094541826843 -0.003210158881593507 0.0 0.3315555537844258 0.3013980990663293 0.0 1.187239176200103 -0.06648962550094162 0.0 1.0570988823843155 -0.010369490075989135 0.0 0.7636280130506987 -0.06980519274196322 0.0 0.23940849716317278 0.36407694235761584 0.0 0.9063658720907172 -0.015386126522877526 0.0 1.091212959300801 -0.3153647378244235 0.0 0.5936721811951282 0.13951913126101784 0.0 0.08639491450860726 0.5314693268563959 0.0 1.2811492618076803 -0.2212301761568061 0.0 0.7383432283624242 -0.07725714781107136 0.0 0.14041088400660676 0.46614787542331493 0.0 0.2675325012951341 0.4740552145284199 0.0 0.592134455527353 0.09128353230718472 0.0 0.4607678497213839 0.1403730124637485 0.0 1.0312169477244777 -0.17526088297073203 0.0 0.6058540597401525 -0.041427465601662966 0.0 0.4686226927709803 -0.20849392934757785 0.0 0.18492596863946756 0.44052641782657614 0.0 0.6188454445136352 -0.13718715571172524 0.0 0.3645985054962672 0.15397786492709675 0.0 0.26159080441014615 0.4122764382185757 0.0 1.002790193368927 -0.029613317908816675 0.0 0.6528707138295364 0.3306408949928732 0.0 1.0720752176968245 -0.3663253954292305 0.0 0.23521859310611837 0.14572730753699278 0.0 0.7239106355926014 0.004408506120522285 0.0 0.8976327345611131 0.32848232832725255 0.0 1.1258889522606652 0.3270541249304949 0.0 1.0300736684712979 0.3711689570376578 0.0 1.285643511657631 -0.26837346975900467 0.0 0.30946364613863636 0.34561293909122026 0.0 0.01528625536479958 0.44109912266347295 0.0 0.03172388240527253 0.5301286132732005 0.0 0.3722581261443796 0.511610504512138 0.0 0.08776916725572724 0.46403966312497985 0.0 0.8646960718914579 -0.03074542715973689 0.0 1.2427330144358204 -0.2801876679879108 0.0 1.1170408166322598 -0.1645559909107858 0.0 1.2863161319967298 -0.34455657962380465 0.0 0.29188930015316233 0.1867490948625387 0.0 0.8621218429039644 -0.27421812280552066 0.0 0.8846727120678993 -0.46557115957983525 0.0 1.0612816775048814 -0.4761929340690605 0.0 0.8175716768286568 -0.3474112272457072 0.0 0.7889959286099419 -0.10470551025877389 0.0 0.6934819279891394 -0.3295750241000457 0.0 0.7388301878683897 -0.44771301411480885 0.0 0.764470438365119 -0.4355639441769358 0.0 0.9637719665457452 -0.5174531016514463 0.0 0.8828868565197414 0.4902595922614491 0.0 1.210490757711927 -0.27503113993127304 0.0 1.159683930795655 -0.33002337534902604 0.0 1.1544594110461808 -0.1279137083531224 0.0 0.9688130598263975 -0.20347029340586278 0.0 1.227819976330112 -0.4402040805480145 0.0 1.2995099637515486 -0.2738795506744952 0.0 1.2974353195074595 -0.21206898464614346 0.0 1.2504858206608829 -0.13722781823571217 0.0 1.220309647329423 -0.4280175365273837 0.0 1.1793201901094041 -0.4810690896866335 0.0 1.0938523195572052 -0.5009162602262237 0.0 1.1257926753009457 -0.5109179873665269 0.0 1.0273373464062228 -0.5147462782516392 0.0 1.1406932199778035 -0.4410477837415069 0.0 0.8559921767428245 0.4871311934048546 0.0 1.0620720660939595 0.44984555405732923 0.0 0.6005847554409035 0.5111002801665732 0.0 0.6804600485859557 0.48341268792933717 0.0 0.3275346646733649 0.5051171166985254 0.0 1.1737629809319812 0.13824748024603856 0.0 0.8548351826843809 0.15302869145829057 0.0 1.1718236868855805 -0.02725949569433393 0.0 1.1642889113958612 -0.12433416715083676 0.0 1.0315201387757162 -0.5235994489005548 0.0 1.0104202736841468 -0.4381971117023808 0.0 0.8925140062606807 0.3972307113249563 0.0 0.5145307641393778 0.451513319766842 0.0 1.0886372800376398 0.17081102721634983 0.0 1.1842162835971215 -0.0441046207661044 0.0 0.3862665601590756 -0.09912994418657359 0.0 1.179220900842716 -0.1777639776395421 0.0 0.9750049868706183 0.4260404941846188 0.0 0.9577399005364688 0.23108058527818207 0.0 0.7419444699955677 0.4042790941085417 0.0 0.8458044797812487 0.28815184590914805 0.0 1.065286572595023 0.2053682889596761 0.0 1.0310837684110883 -0.046811528496718054 0.0 1.1460651299536353 -0.22050611386825156 0.0 0.961925102855642 0.34761624277777403 0.0 0.9124038501842918 0.24897871926161685 0.0 0.9924054919210568 0.29593548709540773 0.0 0.802743283399264 0.00461823467532578 0.0 0.7922702790175116 0.04262315117291235 0.0 0.8583437895919203 0.2046144450358051 0.0 0.7318918118370974 0.2000013207344399 0.0 0.9903025684034887 -0.2317012351147606 0.0 0.0 0.0 0.0 0.8922657062243506 0.17568451146505518 0.0 0.7008601873777446 0.05526584079318018 0.0 0.4973104735503854 0.2842043780096567 0.0 0.8513898090029115 0.14431736390038943 0.0 0.7587630464881522 0.10887876432404489 0.0 0.8314881661510515 0.08662037057717333 0.0 0.5937286262490971 0.16156965231740916 0.0 0.7919317753418602 -0.06658201751181006 0.0 0.35671705900373957 0.07909601980876635 0.0 0.29216342102959525 0.22647366652456977 0.0 0.7619385159004569 -0.020374242318685568 0.0 0.5019392179536324 0.11472309113401213 0.0 0.6437246657584016 -0.05013016808100449 0.0 0.5278672993770706 0.02264291366140777 0.0 0.410958099910937 -0.0539745972005619 0.0 0.8625564511903894 0.1485496656849756 0.0 0.8225586024612611 0.10822476235628292 0.0 0.8042663983424522 0.09060571865341178 0.0 0.297522777416064 0.3312221917404037 0.0 0.6987976032988068 -0.050688935517030645 0.0 0.759727560392522 -0.08392601197328457 0.0 0.6853496383607086 -0.08873474880302475 0.0 0.8258856764076143 -0.12358869565416873 0.0 0.7932512217576969 -0.12483911499891591 0.0 0.7773235731712573 0.027497652631474405 0.0 0.6629805190333149 0.033149027886703895 0.0 0.5035639487451946 -0.17417531932149086 0.0 0.8160542693994776 -0.08760324085009218 0.0 0.7744181739550545 -0.029977753238822073 0.0 0.5487525315000701 -0.00782221399898097 0.0 0.6673564209105599 -0.14312579711559043 0.0 0.6355639299759154 -0.19429999795795905 0.0 0.5519398300646715 -0.11001915191306288 0.0 0.8685055789624286 -0.08788860497266844 0.0 0.0 0.0 0.0 0.6501932417118249 -0.03364795121414664 0.0 1.0806126605876745 0.3860527438840144 0.0 1.1727457513129798 0.36161097263952596 0.0 1.1230595504357432 -0.4082883540165895 0.0 0.8703804247934482 -0.20685071476694702 0.0 0.9857811822419434 -0.21922517521853843 0.0 0.8960566550778835 -0.09191942716058173 0.0 1.3585030292733984 0.09033721714454314 0.0 1.3081369051540146 0.03965844129201169 0.0 1.336956569168926 0.003596856685309162 0.0 1.1623234091423502 0.033609600091976756 0.0 1.190898940171284 0.0876940766172565 0.0 -0.13612940255452854 -0.21864917043436552 0.0 -0.2295591240055433 -0.16560778254473718 0.0 -0.19335046175757395 -0.12001646236325285 0.0 -0.15822843572955486 -0.14979125389755443 0.0 -0.0010941784258410886 -0.12529525248333856 0.0 -0.16995786688813366 -0.16252331545313808 0.0 -0.09273701878365792 -0.10482173716571729 0.0 0.06679305378511848 -0.08846766549188541 0.0 -0.058015096586426014 -0.05574857868046832 0.0 -0.11963820865012341 -0.1219175572458382 0.0 0.9521899130808369 0.09534839828620623 0.0 0.2669795064948572 0.5167558098934084 0.0 1.173616296788239 -0.3135127638791658 0.0 1.2637759363484382 -0.3412281570057687 0.0 1.2628814103315895 -0.39208363175096084 0.0 1.1922715999247193 -0.3805831654208531 0.0 0.9131809758180864 -0.21503188613599436 0.0 1.1736251097238537 -0.4224363356943756 0.0 0.9977449204941484 -0.2758975491684617 0.0 1.0861663852557515 -0.3591674484019421 0.0 1.1253388933042985 -0.36060196877068657 0.0 1.0194390407284692 -0.34552108377441243 0.0 1.0746676865977913 -0.38117975207865346 0.0 1.07563479186972 -0.4333814290911963 0.0 0.9956238804011776 -0.298750279735757 0.0 0.831058555617718 -0.14469202007638401 0.0 0.9233745909307027 -0.2362332937326218 0.0 0.6655497605759417 -0.11707288075438449 0.0 0.9038840485668501 -0.20945327877199338 0.0 0.9511213025466667 -0.302371606595794 0.0 0.8478885006389998 -0.15079529574354922 0.0 0.9023840852408219 -0.22307477361207145 0.0 0.8577559278521406 -0.20156177681490917 0.0 0.7539259653849348 -0.1044718637591185 0.0 0.8951526769956972 -0.23282791761994354 0.0 0.9229565988236123 -0.3381297440403496 0.0 0.839470596382284 -0.15992955606755538 0.0 0.9028972402365082 -0.27513747799763216 0.0 0.6544836061021525 0.03563000456481888 0.0 0.8536563755019827 -0.2524595782359672 0.0 0.519887983495157 0.02803456434879884 0.0 0.7970419404054665 -0.09727015852145876 0.0 0.77500639