<?xml version="1.0"?>
<VTKFile type="UnstructuredGrid"  version="0.1"  >
<UnstructuredGrid>
<Piece  NumberOfPoints="1289" NumberOfCells="2413">
<Points>
<DataArray  type="Float64"  NumberOfComponents="3"  format="ascii">0 0 0  0 0.41 0  2.2 0.41 0  2.2 0 0  0.1 0.1 0  0.1 0.3 0  0.8 0.3 0  0.8 0.1 0  0.25 0.2 0  0.248976 0.210065 0  0.245948 0.219718 0  0.241038 0.228563 0  0.234448 0.23624 0  0.226448 0.242432 0  0.217365 0.246888 0  0.207571 0.249423 0  0.197468 0.249936 0  0.187467 0.248404 0  0.17798 0.24489 0  0.169395 0.239539 0  0.162062 0.232569 0  0.156283 0.224265 0  0.152293 0.214968 0  0.150257 0.205058 0  0.150257 0.194942 0  0.152293 0.185032 0  0.156283 0.175735 0  0.162062 0.167431 0  0.169395 0.160461 0  0.17798 0.15511 0  0.187467 0.151596 0  0.197468 0.150064 0  0.207571 0.150577 0  0.217365 0.153112 0  0.226448 0.157568 0  0.234448 0.16376 0  0.241038 0.171437 0  0.245948 0.180282 0  0.248976 0.189935 0  1.1 0 0  1.1 0.41 0  0.1 0.2 0  0.45 0.1 0  0.45 0.3 0  0.55 0 0  0.275 0.1 0  0.275 0.3 0  0.275 0 0  0.55 0.41 0  0 0.205 0  0.825 0 0  0.825 0.41 0  0.275 0.41 0  0.1 0.15 0  0.1875 0.1 0  0.1 0.25 0  0.1875 0.3 0  0.132322 0.2 0  0.241426 0.253518 0  0.241426 0.146482 0  0.264574 0.17974 0  0.264574 0.22026 0  0.138434 0.187348 0  0.153372 0.150948 0  0.148413 0.164094 0  0.176495 0.136535 0  0.22768 0.143571 0  0.138434 0.212652 0  0.148413 0.235906 0  0.176495 0.263465 0  0.22768 0.256429 0  0.23125 0.3 0  0.24769 0.24094 0  0.23125 0.1 0  0.24769 0.15906 0  0.26253 0.193641 0  0.190482 0.137872 0  0.166753 0.146661 0  0.157737 0.244461 0  0.190482 0.262128 0  0.203107 0.261264 0  0.253635 0.22977 0  0.203107 0.138736 0  0.253635 0.17023 0  0.261028 0.206206 0  0.167707 0.251809 0  0.143629 0.224191 0  0.215302 0.2591 0  0.270465 0.245894 0  0.215302 0.1409 0  0.270465 0.154106 0  0.284052 0.202587 0  0.14375 0.3 0  0.209375 0.3 0  0.225966 0.278501 0  0.209375 0.1 0  0.225966 0.121499 0  0.211613 0.273759 0  0.211613 0.126241 0  0.143629 0.175809 0  0.1 0.175 0  0.133484 0.164832 0  0.144491 0.249539 0  0.1 0.225 0  0.133484 0.235168 0  0.3625 0.3 0  0.25691 0.253381 0  0.25691 0.146619 0  0.277205 0.188698 0  0.184724 0.275712 0  0.237372 0.268285 0  0.184724 0.124288 0  0.237372 0.131715 0  0.197578 0.273149 0  0.193656 0.286994 0  0.197578 0.126851 0  0.193656 0.113006 0  0.122953 0.187671 0  0.118362 0.153758 0  0.155372 0.258107 0  0.122953 0.212329 0  0.118362 0.246242 0  0.276394 0.27264 0  0.276394 0.12736 0  0.280965 0.170013 0  0.253125 0.3 0  0.14375 0.1 0  0.253125 0.1 0  0.269489 0.26014 0  0.269489 0.13986 0  0.303639 0.184297 0  0.165625 0.3 0  0.134742 0.273113 0  0.257831 0.274737 0  0.255279 0.128499 0  0.3625 0.1 0  0.165625 0.1 0  0.162031 0.132368 0  0.134955 0.126405 0  0.149334 0.125568 0  0.142936 0.139597 0  0.12695 0.140259 0  0.242514 0.285501 0  0.242514 0.114499 0  0.1 0.125 0  0.117483 0.12555 0  0.11154 0.139776 0  0.121875 0.1 0  0.109143 0.1125 0  0.126805 0.114 0  0.220313 0.29129 0  0.351562 0.287369 0  0.207222 0.2866 0  0.220312 0.10871 0  0.1375 0 0  0.20625 0 0  0.207222 0.1134 0  0.11722 0.17118 0  0.1 0.1625 0  0.0778409 0.16875 0  0.0862762 0.15625 0  0 0.15375 0  0 0.1025 0  0.11722 0.22882 0  0.1 0.2375 0  0 0.3075 0  0.0862762 0.23125 0  0.0598995 0.222547 0  0.0860223 0.2125 0  0.289584 0.181469 0  0.300267 0.16446 0  0.163832 0.269071 0  0.149597 0.273325 0  0.1 0.275 0  0.268498 0.285953 0  0.31875 0.3 0  0.294154 0.254672 0  0.296875 0.3 0  0.293558 0.271845 0  0.285095 0.286799 0  0.324298 0.264316 0  0.307866 0.263745 0  0.317093 0.234901 0  0.315485 0.281219 0  0.316547 0.250625 0  0.344693 0.243731 0  0.331592 0.251147 0  0.35129 0.270663 0  0.338689 0.263683 0  0.340625 0.3 0  0.249849 0.264383 0  0.265097 0.11422 0  0.284688 0.156136 0  0.242188 0.324017 0  0.0856613 0.2625 0  0.132812 0.0612217 0  0.264062 0.0612217 0  0.198437 0.07598340000000001 0  0.0860223 0.1375 0  0.0794526 0.191089 0  0.285228 0.140397 0  0.298655 0.148737 0  0.31875 0.1 0  0.327335 0.15374 0  0.296875 0.1 0  0.312289 0.155283 0  0.313348 0.135607 0  0.321802 0.173916 0  0.298433 0.134116 0  0.112124 0.2625 0  0.127526 0.259083 0  0.121875 0.3 0  0.0682687 0.241503 0  0.1 0.2875 0  0.117762 0.28125 0  0.107813 0.3 0  0.103906 0.313849 0  0.0778409 0.28125 0  0.1375 0.41 0  0.0862762 0.29375 0  0.08886860000000001 0.24375 0  0.307812 0.338778 0  0.307812 0.292227 0  0.33216 0.279164 0  0.387888 0.266414 0  0.264063 0.31948 0  0.110937 0.07598340000000001 0  0.242188 0.07598340000000001 0  0.319914 0.11839 0  0.340625 0.1 0  0.334448 0.133793 0  0.329687 0.108539 0  0.346259 0.118491 0  0.360334 0.173636 0  0.327539 0.205033 0  0.132812 0.288712 0  0.362436 0.278836 0  0.368105 0.259418 0  0.4125 0.41 0  0.329687 0.324017 0  0.329687 0.292306 0  0.285938 0.318952 0  0.417187 0.338778 0  0.324481 0.14148 0  0.351562 0.106771 0  0.40625 0.1 0  0.341028 0.168342 0  0.319221 0.190479 0  0.335292 0.184501 0  0.305563 0.20794 0  0.220313 0.31948 0  0.132812 0.332772 0  0.0865876 0.311259 0  0.0598995 0.302453 0  0.0906541 0.343255 0  0.353543 0.255837 0  0.36574 0.237633 0  0.405007 0.254279 0  0.275795 0.352123 0  0.4125 0 0  0.35493 0.137394 0  0.366563 0.120618 0  0.35917 0.205246 0  0.198438 0.318952 0  0.0626109 0.263892 0  0.40625 0.3 0  0.354809 0.155936 0  0.386512 0.146872 0  0.373101 0.159939 0  0.384375 0.1 0  0.343394 0.19929 0  0.350682 0.185683 0  0.368101 0.189748 0  0.344016 0.221511 0  0.391108 0.213329 0  0.376279 0.204783 0  0.398843 0.182768 0  0.375804 0.222746 0  0.390665 0.196958 0  0.394004 0.23518 0  0.359883 0.222828 0  0.419908 0.204359 0  0.404243 0.204783 0  0.412615 0.224526 0  0.20625 0.41 0  0.165625 0.325257 0  0.0347982 0.244954 0  0.379558 0.247154 0  0.34165 0.147603 0  0.372264 0.136992 0  0.388988 0.121989 0  0.373437 0.108554 0  0.351562 0.31948 0  0.391367 0.16527 0  0.399572 0.223324 0  0.452011 0.227371 0  0.40877 0.239392 0  0.431491 0.237337 0  0.421224 0.250459 0  0.449619 0.262098 0  0.418865 0.276779 0  0.437063 0.252274 0  0.415673 0.263227 0  0.430988 0.266772 0  0.402767 0.273419 0  0.452967 0.244883 0  0.428125 0.3 0  0.408502 0.286186 0  0.384375 0.3 0  0.392267 0.285807 0  0.465927 0.219339 0  0.43489 0.283846 0  0.376424 0.286289 0  0.625 0.3 0  0.473533 0.205186 0  0.461713 0.255517 0  0.5375 0.3 0  0.465725 0.235405 0  0.44631 0.201425 0  0.471875 0.3 0  0.494307 0.227729 0  0.459448 0.206736 0  0.462294 0.180792 0  0.478933 0.227536 0  0.486793 0.21381 0  0.486322 0.251373 0  0.50065 0.215318 0  0.54005 0.175389 0  0.474633 0.189893 0  0.512916 0.208697 0  0.49531 0.199967 0  0.475889 0.175275 0  0.625 0.1 0  0.459311 0.153933 0  0.513645 0.242704 0  0.392892 0.248539 0  0.374815 0.271913 0  0.365974 0.14871 0  0.395312 0.109184 0  0.417061 0.123981 0  0.483196 0.277003 0  0.381967 0.179632 0  0.429898 0.219374 0  0.433473 0.206165 0  0.43149 0.181038 0  0.444208 0.215487 0  0.472985 0.247309 0  0.49375 0.3 0  0.475579 0.262714 0  0.49916 0.274293 0  0.501175 0.184809 0  0.514164 0.225681 0  0.543648 0.214977 0  0.5341630000000001 0.23481 0  0.527396 0.216171 0  0.5375 0.1 0  0.534548 0.202315 0  0.561545 0.192513 0  0.5494289999999999 0.201221 0  0.570923 0.218346 0  0.412582 0.149833 0  0.489327 0.264745 0  0.502439 0.254775 0  0.462391 0.271166 0  0.496775 0.241732 0  0.5294410000000001 0.268606 0  0.482812 0.291099 0  0.46879 0.285038 0  0.452663 0.284065 0  0.51789 0.257882 0  0.53408 0.252026 0  0.560142 0.243543 0  0.545708 0.243474 0  0.547532 0.229019 0  0.55282 0.265323 0  0.398971 0.153424 0  0.400349 0.135684 0  0.410135 0.168145 0  0.428823 0.161323 0  0.415266 0.183779 0  0.329687 0.0810483 0  0.395312 0.0612217 0  0.373437 0.318952 0  0.439062 0.324017 0  0.561816 0.229354 0  0.585029 0.239287 0  0.431827 0.139854 0  0.446796 0.168929 0  0.351562 0.07598340000000001 0  0.395313 0.318944 0  0.54337 0.150762 0  0.460937 0.31948 0  0.418412 0.137529 0  0.428125 0.1 0  0.442783 0.152332 0  0.450742 0.134294 0  0.373437 0.0805201 0  0.384383 0.342558 0  0.482812 0.318952 0  0.429239 0.127457 0  0.444274 0.117405 0  0.426548 0.113815 0  0.49375 0.1 0  0.488954 0.113984 0  0.457973 0.121842 0  0.471621 0.137346 0  0.515625 0.325257 0  0.48125 0.41 0  0.417187 0.07598340000000001 0  0.496363 0.126778 0  0.479043 0.155715 0  0.439062 0.0805201 0  0.481795 0.126919 0  0.471875 0.1 0  0.489227 0.142159 0  0.515625 0.1 0  0.520062 0.147117 0  0.501244 0.161791 0  0.505431 0.112984 0  0.505344 0.14029 0  0.526563 0.119081 0  0.5181750000000001 0.131908 0  0.539868 0.136937 0  0.460937 0.108383 0  0.474242 0.114415 0  0.460937 0.0810483 0  0.487841 0.167168 0  0.526563 0.0612217 0  0.526563 0.106406 0  0.537619 0.112743 0  0.58125 0.1 0  0.559375 0.1 0  0.482812 0.08105569999999999 0  0.471883 0.0587655 0  0.570312 0.129396 0  0.548437 0.07598340000000001 0  0.504687 0.08105569999999999 0  0.49375 0.0470127 0  0.570312 0.112663 0  0.592798 0.12103 0  0.553986 0.12103 0  0.570312 0.0805201 0  0.48125 0 0  0.114787 0.2 0  0.160769 0.284765 0  0.175816 0.288361 0  0.162602 0.116048 0  0.154687 0.07598340000000001 0  0.176562 0.0805201 0  0.0598995 0.147547 0  0.307812 0.109924 0  0.291279 0.117157 0  0.278491 0.112989 0  0.285937 0.07598340000000001 0  0.307812 0.0805201 0  0.296928 0.196743 0  0.318141 0.218507 0  0.330208 0.227509 0  0.301397 0.225668 0  0.302706 0.241401 0  0.292574 0.21424 0  0.282762 0.230935 0  0.284351 0.244775 0  0.269553 0.23261 0  0.278572 0.217242 0  0.226924 0.342606 0  0.446928 0.185396 0  0.515625 0.3 0  0.504687 0.288879 0  0.515256 0.276534 0  0.529479 0.285328 0  0.58125 0.3 0  0.541969 0.272936 0  0.559375 0.3 0  0.556796 0.282529 0  0.543473 0.287206 0  0.581429 0.267774 0  0.566728 0.271171 0  0.570869 0.255585 0  0.577404 0.283865 0  0.603125 0.3 0  0.597531 0.28035 0  0.570312 0.338778 0  0.592188 0.292492 0  0.603513 0.256094 0  0.614063 0.286265 0  0.610329 0.27064 0  0.632708 0.251285 0  0.657223 0.261594 0  0.618789 0.257807 0  0.614188 0.22987 0  0.630935 0.265614 
[...]
<PointData  Vectors="v"> 
	<DataArray  type="Float64"  Name="v"  NumberOfComponents="3" format="ascii">
0.0 0.0 0.0 0.0 0.0 0.0 0.0 0.0 0.0 0.0 0.0 0.0 0.8041754864136623 -0.19473554190893147 0.0 0.8353168545730144 0.18617006694335636 0.0 1.0921323808634011 -0.1276948534286625 0.0 0.4642872391849452 0.06165968699133983 0.0 0.0 0.0 0.0 0.0 0.0 0.0 0.0 0.0 0.0 0.0 0.0 0.0 0.0 0.0 0.0 0.0 0.0 0.0 0.0 0.0 0.0 0.0 0.0 0.0 0.0 0.0 0.0 0.0 0.0 0.0 0.0 0.0 0.0 0.0 0.0 0.0 0.0 0.0 0.0 0.0 0.0 0.0 0.0 0.0 0.0 0.0 0.0 0.0 0.0 0.0 0.0 0.0 0.0 0.0 0.0 0.0 0.0 0.0 0.0 0.0 0.0 0.0 0.0 0.0 0.0 0.0 0.0 0.0 0.0 0.0 0.0 0.0 0.0 0.0 0.0 0.0 0.0 0.0 0.0 0.0 0.0 0.0 0.0 0.0 0.0 0.0 0.0 0.0 0.0 0.0 0.0 0.0 0.0 0.0 0.0 0.0 0.0 0.0 0.0 0.7661618095053812 -0.021357037616706136 0.0 0.9503628045355546 -0.011403897995334837 0.0 1.1868575923903026 -0.32566290642407275 0.0 0.0 0.0 0.0 1.293638641945443 0.02480665315370774 0.0 1.302353015624863 0.07900999804590925 0.0 0.0 0.0 0.0 0.0 0.0 0.0 1.0 0.0 0.0 0.0 0.0 0.0 0.0 0.0 0.0 0.0 0.0 0.0 0.8544706127773355 -0.2434485836102318 0.0 1.1751265145233456 -0.27823660461904703 0.0 0.8640004845771735 0.20750885705488192 0.0 1.1573094123394314 0.29991445678188067 0.0 0.43332852188447546 -0.026023356370614766 0.0 0.16923358576530884 0.016042214771413914 0.0 0.25358896952700066 -0.0052786713779218895 0.0 -0.046749843798623986 -0.1385427405706685 0.0 -0.047203968216629116 0.012245880136057622 0.0 0.34354009122661017 -0.30611052670234756 0.0 0.8936938885569522 -0.6862210039795985 0.0 0.6672830948008347 -0.7159009278645204 0.0 1.279786629663491 -0.6049004224969783 0.0 0.39743984302639934 0.02594461837659555 0.0 0.3309849054197613 0.24700632335073247 0.0 0.6444065523773203 0.6543751446348091 0.0 1.2113990008461424 0.5944959062411247 0.0 0.29520795766171287 -0.002902845071729557 0.0 1.2717833165755268 0.1827315522614164 0.0 -0.02037670271057589 0.023166941858736575 0.0 1.2872310158876386 -0.1160371081079805 0.0 0.005839376043221834 -0.07341279770965801 0.0 -0.046471477556577004 -0.1148321260711209 0.0 1.2972908016249516 -0.4047130971199837 0.0 1.1649645769513115 -0.7463192113232864 0.0 0.8604487740922413 0.7629605874629131 0.0 1.2242077556235635 0.39441214693852156 0.0 0.9082056763629712 0.16246672659935188 0.0 -0.029719628410383548 0.017871302367597108 0.0 1.0141421782133198 -0.1581155729508622 0.0 -0.038542884475688745 -0.12545574191950828 0.0 -0.03248140347134346 -0.05815313221076257 0.0 1.0504282476169902 0.7175510175750871 0.0 0.4403883505134931 0.5111213382425206 0.0 0.5395852308846895 0.03001706677671127 0.0 0.05684083802201432 0.023055262739863386 0.0 0.6472478207050385 -0.017736542930389697 0.0 0.1900580346317868 -0.06378545292464702 0.0 -0.14089295103433064 -0.00861762191819351 0.0 0.959321651114711 0.28671369715291023 0.0 1.2415563553503621 0.23705405263953172 0.0 1.2931344140129837 0.19628180104406387 0.0 1.2453731645015556 -0.20308345416836082 0.0 1.360436905063273 -0.148634651023383 0.0 1.3003956173802536 0.248374080056573 0.0 1.3788629171217175 -0.21257561700685815 0.0 0.46207434586093754 -0.5746966868534147 0.0 0.8106715924054997 -0.15728352073208013 0.0 0.6906732570106782 -0.43853029819335637 0.0 0.8822401579687829 0.5756159000344252 0.0 0.801161171994375 0.12120432444149347 0.0 0.6782173025923662 0.3978392519834609 0.0 1.3347537620529482 -0.09460836363234355 0.0 0.18361299797545494 0.006840796117323599 0.0 0.3322416018362912 -0.013236660029843084 0.0 -0.09732284428880893 -0.08630815355574557 0.0 1.2926901271333562 0.419962499413233 0.0 0.8837440450245189 0.05994523025568131 0.0 1.3353522012043317 -0.4173481979173958 0.0 1.0417203602842087 -0.02334251247341125 0.0 1.325452549224432 0.3534205525083223 0.0 1.2607183523969074 0.33730180622101796 0.0 1.3791838281302422 -0.3318529623831257 0.0 1.291880754848027 -0.29890861419768894 0.0 0.5938892624345393 -0.18287221577373575 0.0 0.813340700462291 -0.345573188429472 0.0 1.0212135746963837 0.5832938208667162 0.0 0.5943720146606457 0.12786830317680703 0.0 0.8138815325926708 0.30908021553533843 0.0 0.8745825350702583 0.024235116028091447 0.0 1.1125086140200298 0.05562551850086198 0.0 0.01754014376412726 -0.0861115385647282 0.0 1.2976068042497804 0.12240531305849563 0.0 0.9481860460661957 -0.3032462904597327 0.0 1.2963963678556545 -0.039249365445251934 0.0 0.4011488825188133 0.002744080601596785 0.0 0.6447926514354261 0.023816641220631974 0.0 -0.1294961594252487 0.03271058342778073 0.0 1.051376400838269 0.3127328851908254 0.0 0.944300090013554 0.3656267242490124 0.0 1.0335720750599826 0.05712684396846887 0.0 1.0900833276268589 0.004683124793863899 0.0 1.0994959992726487 0.18272150896627673 0.0 1.0512362304057925 -0.3064720669797409 0.0 1.125321413040523 -0.56093879107412 0.0 0.9565492358814361 -0.3856914934201393 0.0 1.0329269929574256 -0.42642349001627566 0.0 0.9668834329548155 -0.5489284640670835 0.0 0.8880518363011091 -0.41362411482310046 0.0 1.3044672877094479 0.14501277539269805 0.0 1.3498214677057856 -0.07728041896030838 0.0 0.8641041324302914 -0.24023969417494476 0.0 0.8966428796180926 -0.31127180468626375 0.0 0.868909381354031 -0.30659192930804335 0.0 0.863937903813022 -0.24826232308692178 0.0 0.8668926107360228 -0.25140062849826783 0.0 0.9148875622295294 -0.313382208325255 0.0 1.3070948022957691 0.2186785934747625 0.0 1.2579493901963903 -0.04777644682123285 0.0 1.3185972871498277 0.2802334640686804 0.0 1.3334366811702703 -0.15597000818784312 0.0 0.0 0.0 0.0 0.0 0.0 0.0 1.3433687466447284 -0.236622996622346 0.0 0.7269133301961189 -0.2863574214444002 0.0 0.8308776467398866 -0.22537258090004925 0.0 0.8767235760341073 -0.1246215163368338 0.0 0.8704152273166836 -0.17612398109090857 0.0 0.9375 0.0 0.0 0.7500000000000001 0.0 0.0 0.7244964093661738 0.24336842604825715 0.0 0.8250277406006269 0.17865728673662443 0.0 0.7499999999999999 0.0 0.0 0.8707800495377486 0.10758080967246654 0.0 0.9295547790647521 0.027919815755141256 0.0 0.8509719851894275 0.025754316913334838 0.0 -0.08610422905440472 -0.04792772328666335 0.0 0.13299369412880008 0.013035414492601849 0.0 1.1281216570952448 0.5262855083540169 0.0 1.0234174156870013 0.4458361058491505 0.0 0.8788198851412448 0.2229790271269138 0.0 1.245816827816497 0.07251138352999664 0.0 1.3072440512079342 0.004993568747341274 0.0 0.26958010438774066 0.02952351473051281 0.0 1.3075445434942847 0.0399992083523932 0.0 0.817077302729921 0.01287583197968413 0.0 1.227619468296605 0.04547485880081801 0.0 0.6147210227024495 0.039358666031486425 0.0 0.5466385156804521 0.028257419545218106 0.0 0.03285588195882307 0.14637651339358076 0.0 1.0944260026741273 0.00948446573301007 0.0 0.2661354302076654 0.08721632647835104 0.0 0.28956670470910023 0.16859630746715243 0.0 0.34553219338518487 0.11045543614200207 0.0 0.9056200032833213 0.0053620041277000815 0.0 0.6589434123286786 0.04976440431575244 0.0 1.3253381141681522 -0.04029352426289913 0.0 0.6126898028994773 0.016615456800022764 0.0 1.3330218576601878 0.0035797134662962343 0.0 0.24076864053336428 -0.0272565385024113 0.0 1.1344243310251063 0.10489570052435704 0.0 0.8820042476392067 0.15946513374707172 0.0 0.7034808675734598 -0.15342060123894552 0.0 1.0020470799290462 0.001287145042424307 0.0 1.0232410787754826 -0.15663861814532218 0.0 0.8720452097054022 -0.19045244223993507 0.0 0.8792185326490848 -0.04244125018413695 0.0 0.6861039741139185 0.05234827504063544 0.0 0.4865744340929268 0.0688734419881033 0.0 1.2303661649759752 0.14678884845537307 0.0 0.4601547784225456 0.21116430165385142 0.0 1.2811094973920885 0.08922897246940288 0.0 0.3717317555854333 0.12205676550956589 0.0 0.9316942475841645 0.18097612085005782 0.0 -0.0007599739228971032 0.15642552792171724 0.0 0.9392521288122156 0.12684151245958375 0.0 0.8784659576230205 0.2741474539514802 0.0 0.8810170587187428 0.38733866469043987 0.0 0.8787195994991509 0.24438695906905095 0.0 0.9125949403424104 0.09239021662964492 0.0 0.8618508704277206 0.20135622039636017 0.0 0.90212493312333 0.2788529342597993 0.0 0.8516614786348868 0.2102954654853607 0.0 0.7950500213429029 0.16283305494850234 0.0 0.8645596274041736 0.1430093704984953 0.0 0.0 0.0 0.0 0.8379224368110991 0.15722164974601047 0.0 0.8710920994940025 0.15067903411342093 0.0 1.0974102698489931 -0.004302399441857011 0.0 1.2725237491642294 0.019912284172893813 0.0 1.0628873731018125 -0.0004119371355989456 0.0 1.0310939772185865 -0.09191959952094993 0.0 1.1972076096520923 0.07723890315764058 0.0 0.7225347773071654 -0.1665016134928052 0.0 1.109711582434355 -0.055113294201605545 0.0 1.229529216333279 0.1986222805221309 0.0 1.1762528811990764 0.17977832252562248 0.0 0.9851434183201279 0.26984307483417164 0.0 1.2278519043711755 0.19623856216072674 0.0 1.1489272999400981 0.2522352568599634 0.0 0.005498266798842842 0.386889355189171 0.0 -0.2471560514182936 0.21953923474015893 0.0 0.941677220665072 0.31335758736678526 0.0 1.1542779528151164 -0.057334628591050214 0.0 0.7417254427314885 0.04035653551900042 0.0 0.0 0.0 0.0 1.2105335130252346 -0.03138432802148593 0.0 1.2854236572863003 -0.015517859702403283 0.0 1.217640990863961 0.046556864336056984 0.0 1.0201648373806311 -0.1739580468072808 0.0 0.7859307856964313 0.2208850359048843 0.0 1.1526646413977757 0.20965745011631087 0.0 0.9843389808952797 0.10834689587090941 0.0 0.12489604345052573 0.28557453394972837 0.0 -0.2037020606811208 0.13790256956704594 0.0 -0.15888643649464906 0.24419021919680953 0.0 -0.20442850706936894 0.09560002877204742 0.0 1.1374637463186343 0.15613220204159103 0.0 0.7638638151006827 0.17429433537385375 0.0 0.7731938390751352 0.1361613989836674 0.0 0.7836089230937385 0.09290517833409387 0.0 0.6123719215539333 0.09652473215691915 0.0 0.5691759561257693 0.09187591671914033 0.0 0.31248247373104965 0.20154893879862584 0.0 0.9120892857709682 -0.11480596412762786 0.0 0.9660707170338604 0.031735231514491216 0.0 0.0 0.0 0.0 0.873280874261346 0.31920481002460593 0.0 1.0580249582755137 0.262136076009567 0.0 -0.2271624113347033 0.37112041723627465 0.0 1.0663903497408398 0.2130454351048701 0.0 0.8993965304022441 0.09639074180225914 0.0 1.3176233301479374 -0.23456431398856767 0.0 0.4292344027644123 0.34414069734128766 0.0 0.5628154707776686 0.32792721096700556 0.0 0.298008358999087 0.3865806711706472 0.0 1.0375919056327845 0.154974069627366 0.0 -0.25738882491473636 0.30548812678269105 0.0 -0.1798310851446129 0.34340704466567623 0.0 -0.2165031266155554 0.4203888847194478 0.0 -0.09149785168454734 0.26935037505121323 0.0 0.041717308932038295 0.2911512750308168 0.0 -0.1674790510786237 0.38571993571636043 0.0 -0.15344250857926334 0.4088375459366308 0.0 0.09172391341680464 0.27805256941547984 0.0 -0.1673520839980512 0.39102973784005124 0.0 0.4802342246637044 0.10519256473188286 0.0 0.0082565614101553 0.297518144662292 0.0 0.12012324011746439 0.13333289106827242 0.0 0.0012445839992616587 0.26968648990293226 0.0 0.4158615902833772 0.04824658712146243 0.0 0.0 0.0 0.0 0.9245020408033208 0.2202927100179782 0.0 0.9515295620463468 0.030514576259875893 0.0 0.5900882151753442 0.09148213311073546 0.0 0.6420865958650992 0.29483551459466195 0.0 0.8190111451256308 0.3136961410555735 0.0 0.9513495100995945 0.22614871452249496 0.0 1.074205107568927 0.20452632022710268 0.0 1.2460520731355205 -0.06967901895905042 0.0 0.11186848609275228 0.4002395697583563 0.0 0.2928081297392529 0.15860493820839414 0.0 0.7509426109387455 -0.3631970936466732 0.0 0.666573089037711 -0.037166208709360445 0.0 0.7965038155500521 -0.22625912126653414 0.0 0.956013435701463 -0.21912280088354144 0.0 1.2029053151001923 -0.45218221155023886 0.0 1.3023492818644007 -0.30681493528282167 0.0 1.0715903327746472 -0.3616004478952957 0.0 1.1379584446924425 -0.2500665947843134 0.0 1.2357077299894474 -0.36141513438130646 0.0 1.232685412839443 -0.21163118655904523 0.0 1.0226343117966552 -0.4479170275736594 0.0 1.2629571351310702 -0.2895756503826322 0.0 1.3350540006528415 -0.26242400568123164 0.0 1.3417230656219699 -0.16021543046714623 0.0 1.330294159719015 -0.18648603574955822 0.0 0.6907333436462908 -0.43848837846036526 0.0 1.2975033550236639 -0.366072187101422 0.0 1.3028472735353964 -0.12689288218065684 0.0 0.6394260491907141 0.07453471396267017 0.0 0.5258561095414426 -0.41779272142627466 0.0 1.1412346413589851 -0.497028682329956 0.0 0.8418686078100022 -0.15699426538794004 0.0 0.9270439915072305 -0.49901041754801034 0.0 0.2841063448461492 -0.12439685190214485 0.0 1.0930982038411818 -0.32551360303253635 0.0 0.8678147614461134 -0.5432327294425271 0.0 0.4620780710415633 -0.3084487946619584 0.0 0.17275689151369647 -0.15526025506444566 0.0 0.8559164497960641 -0.5360948863154774 0.0 0.7025513614489872 -0.5150567849422925 0.0 1.0584671369906828 -0.5162352084509324 0.0 0.7555998963412639 -0.5308624969725134 0.0 0.4950433622067774 -0.44245195993474773 0.0 0.3431133156567424 -0.3219811659948777 0.0 0.7078564578824611 -0.5012940717215815 0.0 0.5755987453694255 -0.4815200918471752 0.0 0.2262779028806151 -0.2355324427155021 0.0 1.0475386760355663 0.26846901524348205 0.0 0.1383253873749248 0.005212168396888995 0.0 0.932591522954955 -0.4618738187337742 0.0 0.7149030563305102 0.007501897225261304 0.0 1.0612834721249436 -0.06413906624482071 0.0 0.5894083289327768 0.3584978104236773 0.0 0.9988625731519409 0.15649476169294887 0.0 0.8285053928741548 0.13052664873888603 0.0 1.1085675743406433 -0.4161214745767934 0.0 -0.1240275264783558 0.43824663308521644 0.0 0.4572994621503618 -0.08988920080936923 0.0 0.2542774982148023 -0.018080268549495748 0.0 -0.035810862581814366 0.15920615831651658 0.0 0.49183390029066065 -0.2122865636469751 0.0 1.0626842679030495 -0.530005352538609 0.0 1.001186731201324 -0.2895010569713798 0.0 1.1392768126812411 -0.49063229189103086 0.0 1.041949157248434 -0.38963108250848055 0.0 0.45851460976884717 -0.41925305438797994 0.0 0.8397864638537752 -0.500385267635046 0.0 0.7316390067951217 -0.4053533818728171 0.0 0.8396945064168275 -0.39308747254919385 0.0 0.7635856744057077 -0.4610131794417647 0.0 1.1307371485360416 0.024186273048450703 0.0 0.6687529915890765 -0.4455618863314436 0.0 0.5712253746980144 -0.4434414086640961 0.0 0.6456013487898176 -0.42409459663786114 0.0 0.6437615219638446 -0.35688223954890874 0.0 0.36236115157076715 0.2729160114755345 0.0 1.0834788322546214 -0.46002621000958993 0.0 1.0106562541452575 -0.46312615876201085 0.0 1.2045264687512716 -0.4571660562384616 0.0 0.9760823067390823 -0.5223056018850168 0.0 0.9173339725887734 -0.29809955946753824 0.0 1.0793175109141981 -0.3539372015303281 0.0 1.1638668249703914 -0.397974920159269 0.0 1.234427942907134 -0.39696848502071935 0.0 0.9557604880092481 -0.3888222950908092 0.0 0.8871128263359989 -0.3390708767959637 0.0 0.7771274794550012 -0.25286434576076333 0.0 0.8299985554122652 -0.3146258740563388 0.0 0.7828858109986722 -0.354327469653463 0.0 0.833094457200922 -0.20684673723453093 0.0 0.34890568846411396 0.33039867654226085 0.0 0.7195790212015225 0.24333695660875257 0.0 -0.006457570245584802 0.35248509826369484 0.0 0.053005508465937046 0.22965875430194674 0.0 -0.10180626464078545 0.3041158828495473 0.0 1.0993436513072843 0.12400766697473414 0.0 0.8582130975336645 0.07134735167030716 0.0 1.2452165675532412 -0.12388709658206455 0.0 1.0717613826183574 -0.24271007148220172 0.0 0.732971788889635 -0.30735245345906753 0.0 0.6327689426782745 -0.24550122094060295 0.0 0.48029958987380267 0.1461975192956025 0.0 0.022700182120035172 0.08059613949479288 0.0 1.020389908545886 0.1260042681215609 0.0 1.218219307526168 -0.17646030305674648 0.0 0.5991035594546764 -0.3003859868103585 0.0 1.0306503300649497 -0.25986500558405673 0.0 0.6007067409421021 0.18194384231730795 0.0 0.9523512233892112 0.04574950973347104 0.0 0.17249335150245682 0.1282399113323331 0.0 0.5239033490008093 0.040788760287025334 0.0 1.001086600836547 0.12294700450230588 0.0 1.049641542925601 -0.12230527026710841 0.0 0.9565394175835112 -0.24218260457936286 0.0 0.7333509407458542 0.09788113696831281 0.0 0.8353607905598986 0.01350145343708531 0.0 0.900070649163399 0.0659431615756691 0.0 1.0108070743368553 -0.05987573251061732 0.0 0.8738062351618601 -0.0888262856147006 0.0 0.7447348856138587 -0.022794578276360923 0.0 0.4131978154488194 -0.052833263021477506 0.0 0.7961520374609306 -0.15348444531504032 0.0 0.0 0.0 0.0 0.9229271441901457 0.051928696589205445 0.0 0.666841544081509 -0.1304455180944572 0.0 0.1974993421643714 -0.14691776903410905 0.0 0.9287552716981504 0.012674183010849504 0.0 0.6359979266864315 -0.09609388985611247 0.0 0.9690501373264994 -0.05016438832037765 0.0 0.3625535476535161 -0.1516003225178043 0.0 1.0723492837770237 -0.033986243788639695 0.0 0.45741247316439604 -0.2888530509286677 0.0 0.30014006456908277 -0.3166583001889997 0.0 0.9329829297578056 -0.09093745315322597 0.0 0.4594484447130653 -0.20480605451384135 0.0 0.9446811156073941 -0.08978239189135122 0.0 0.6794643425262678 -0.1855475758924206 0.0 0.7593691535604983 -0.1834458728547181 0.0 0.9123430972710622 -0.04096708359523635 0.0 0.8504043587271571 -0.06569910970862457 0.0 0.9448619122147103 -0.01632461897030777 0.0 0.24640238591458902 -0.26587355710421395 0.0 0.8676623829242583 0.03648798308387582 0.0 1.0776262065800832 -0.03188569799114708 0.0 1.0812062022540792 -0.021992467582294933 0.0 1.1767002423508424 0.19126924424696448 0.0 1.1788054707626574 0.10648474297758193 0.0 0.9793302635904989 -0.02474967474536174 0.0 0.8258796861414881 0.0032479239185308102 0.0 1.1213590363960606 0.06214251886962553 0.0 1.0141523960769578 0.08448430455277457 0.0 1.0146383759182853 -0.011436540934331966 0.0 0.7133153241579275 0.009510542371581283 0.0 1.2096258171000185 0.1397323027996545 0.0 1.2469316936841517 0.24508483417064833 0.0 1.0949754622302452 0.006592439500141787 0.0 1.032534839393112 0.14009507622511394 0.0 0.0 0.0 0.0 0.6501074241059585 -0.02641617545758979 0.0 1.0808517401484374 0.3986770736322065 0.0 1.172388929820259 0.3769547519428687 0.0 1.1218935229893228 -0.3961572908642287 0.0 0.8691985667100209 -0.19840440594978337 0.0 0.9821007454386955 -0.2068223052620702 0.0 0.8961488057895681 -0.09389233624606129 0.0 1.2870135538605059 0.13918312941921981 0.0 1.2884227024006931 0.10030702936399823 0.0 1.319929531400328 0.05431729678012742 0.0 1.1174877236946292 0.052536289097370535 0.0 1.1317782692730038 0.09729433475585528 0.0 -0.18249177682224668 0.021941123916884447 0.0 -0.15531082411621436 0.16966809957720955 0.0 -0.03353008602277179 0.20462032781153885 0.0 -0.0858380116581771 0.10301026232390345 0.0 0.07900884355381431 0.08764945797400332 0.0 -0.14610417418039803 0.05641661922234727 0.0 -0.04550377917906724 0.05620245682245116 0.0 0.07312854706949733 0.04256200022318508 0.0 -0.039870476003190186 0.03521040908145783 0.0 -0.09656476374843191 0.028521104910618215 0.0 0.9689365516206377 0.1111148791506736 0.0 0.09744070416143373 -0.0259090720006571 0.0 0.9165867401238473 -0.22908935246667234 0.0 0.9908693968521873 -0.3107652297101527 0.0 0.9669100463163163 -0.32474598484085754 0.0 0.9026537943199876 -0.23620730573339943 0.0 0.7390539447249701 0.0028550580327764427 0.0 0.8692702409588068 -0.22732708421544603 0.0 0.7826535934470172 -0.07395014013204208 0.0 0.816200513244315 -0.1333798837295985 0.0 0.8503844788235264 -0.17365275172812084 0.0 0.7304683586896824 -0.08900209925041289 0.0 0.7882075454568763 -0.12626337349576675 0.0 0.756234608088133 -0.16826668910607495 0.0 0.7564972921935966 -0.047365829558124975 0.0 0.6989981820837027 0.059747568077609226 0.0 0.6828186594254833 -0.011942051211338553 0.0 0.6183462893296975 0.007912749789251229 0.0 0.7195008402546038 0.022041568148929776 0.0 0.5721260528962456 -0.14864567428738065 0.0 0.6240954727149498 0.0191788821713533 0.0 0.5809328497770545 -0.06235732916790461 0.0 0.5260399316164256 0.020733028404839076 0.0 0.5702303791348685 0.1833484215129226 0.0 0.5187472859648236 -0.08678293099199631 0.0 0.5610494707290078 -0.1285795435436976 0.0 0.5065039702408864 -0.0065909585655628536 0.0 0.5302078146932986 -0.08287823463583023 0.0 0.580563059524683 0.12992024195078494 0.0 0.6975006086438817 0.20187762153927874 0.0 0.7037241122080408 0.15955162639005235 0.0 0.5429611374842442 0.028281742409481