<?xml version="1.0"?>
<VTKFile type="UnstructuredGrid"  version="0.1"  >
<UnstructuredGrid>
<Piece  NumberOfPoints="1289" NumberOfCells="2413">
<Points>
<DataArray  type="Float64"  NumberOfComponents="3"  format="ascii">0 0 0  0 0.41 0  2.2 0.41 0  2.2 0 0  0.1 0.1 0  0.1 0.3 0  0.8 0.3 0  0.8 0.1 0  0.25 0.2 0  0.248976 0.210065 0  0.245948 0.219718 0  0.241038 0.228563 0  0.234448 0.23624 0  0.226448 0.242432 0  0.217365 0.246888 0  0.207571 0.249423 0  0.197468 0.249936 0  0.187467 0.248404 0  0.17798 0.24489 0  0.169395 0.239539 0  0.162062 0.232569 0  0.156283 0.224265 0  0.152293 0.214968 0  0.150257 0.205058 0  0.150257 0.194942 0  0.152293 0.185032 0  0.156283 0.175735 0  0.162062 0.167431 0  0.169395 0.160461 0  0.17798 0.15511 0  0.187467 0.151596 0  0.197468 0.150064 0  0.207571 0.150577 0  0.217365 0.153112 0  0.226448 0.157568 0  0.234448 0.16376 0  0.241038 0.171437 0  0.245948 0.180282 0  0.248976 0.189935 0  1.1 0 0  1.1 0.41 0  0.1 0.2 0  0.45 0.1 0  0.45 0.3 0  0.55 0 0  0.275 0.1 0  0.275 0.3 0  0.275 0 0  0.55 0.41 0  0 0.205 0  0.825 0 0  0.825 0.41 0  0.275 0.41 0  0.1 0.15 0  0.1875 0.1 0  0.1 0.25 0  0.1875 0.3 0  0.132322 0.2 0  0.241426 0.253518 0  0.241426 0.146482 0  0.264574 0.17974 0  0.264574 0.22026 0  0.138434 0.187348 0  0.153372 0.150948 0  0.148413 0.164094 0  0.176495 0.136535 0  0.22768 0.143571 0  0.138434 0.212652 0  0.148413 0.235906 0  0.176495 0.263465 0  0.22768 0.256429 0  0.23125 0.3 0  0.24769 0.24094 0  0.23125 0.1 0  0.24769 0.15906 0  0.26253 0.193641 0  0.190482 0.137872 0  0.166753 0.146661 0  0.157737 0.244461 0  0.190482 0.262128 0  0.203107 0.261264 0  0.253635 0.22977 0  0.203107 0.138736 0  0.253635 0.17023 0  0.261028 0.206206 0  0.167707 0.251809 0  0.143629 0.224191 0  0.215302 0.2591 0  0.270465 0.245894 0  0.215302 0.1409 0  0.270465 0.154106 0  0.284052 0.202587 0  0.14375 0.3 0  0.209375 0.3 0  0.225966 0.278501 0  0.209375 0.1 0  0.225966 0.121499 0  0.211613 0.273759 0  0.211613 0.126241 0  0.143629 0.175809 0  0.1 0.175 0  0.133484 0.164832 0  0.144491 0.249539 0  0.1 0.225 0  0.133484 0.235168 0  0.3625 0.3 0  0.25691 0.253381 0  0.25691 0.146619 0  0.277205 0.188698 0  0.184724 0.275712 0  0.237372 0.268285 0  0.184724 0.124288 0  0.237372 0.131715 0  0.197578 0.273149 0  0.193656 0.286994 0  0.197578 0.126851 0  0.193656 0.113006 0  0.122953 0.187671 0  0.118362 0.153758 0  0.155372 0.258107 0  0.122953 0.212329 0  0.118362 0.246242 0  0.276394 0.27264 0  0.276394 0.12736 0  0.280965 0.170013 0  0.253125 0.3 0  0.14375 0.1 0  0.253125 0.1 0  0.269489 0.26014 0  0.269489 0.13986 0  0.303639 0.184297 0  0.165625 0.3 0  0.134742 0.273113 0  0.257831 0.274737 0  0.255279 0.128499 0  0.3625 0.1 0  0.165625 0.1 0  0.162031 0.132368 0  0.134955 0.126405 0  0.149334 0.125568 0  0.142936 0.139597 0  0.12695 0.140259 0  0.242514 0.285501 0  0.242514 0.114499 0  0.1 0.125 0  0.117483 0.12555 0  0.11154 0.139776 0  0.121875 0.1 0  0.109143 0.1125 0  0.126805 0.114 0  0.220313 0.29129 0  0.351562 0.287369 0  0.207222 0.2866 0  0.220312 0.10871 0  0.1375 0 0  0.20625 0 0  0.207222 0.1134 0  0.11722 0.17118 0  0.1 0.1625 0  0.0778409 0.16875 0  0.0862762 0.15625 0  0 0.15375 0  0 0.1025 0  0.11722 0.22882 0  0.1 0.2375 0  0 0.3075 0  0.0862762 0.23125 0  0.0598995 0.222547 0  0.0860223 0.2125 0  0.289584 0.181469 0  0.300267 0.16446 0  0.163832 0.269071 0  0.149597 0.273325 0  0.1 0.275 0  0.268498 0.285953 0  0.31875 0.3 0  0.294154 0.254672 0  0.296875 0.3 0  0.293558 0.271845 0  0.285095 0.286799 0  0.324298 0.264316 0  0.307866 0.263745 0  0.317093 0.234901 0  0.315485 0.281219 0  0.316547 0.250625 0  0.344693 0.243731 0  0.331592 0.251147 0  0.35129 0.270663 0  0.338689 0.263683 0  0.340625 0.3 0  0.249849 0.264383 0  0.265097 0.11422 0  0.284688 0.156136 0  0.242188 0.324017 0  0.0856613 0.2625 0  0.132812 0.0612217 0  0.264062 0.0612217 0  0.198437 0.07598340000000001 0  0.0860223 0.1375 0  0.0794526 0.191089 0  0.285228 0.140397 0  0.298655 0.148737 0  0.31875 0.1 0  0.327335 0.15374 0  0.296875 0.1 0  0.312289 0.155283 0  0.313348 0.135607 0  0.321802 0.173916 0  0.298433 0.134116 0  0.112124 0.2625 0  0.127526 0.259083 0  0.121875 0.3 0  0.0682687 0.241503 0  0.1 0.2875 0  0.117762 0.28125 0  0.107813 0.3 0  0.103906 0.313849 0  0.0778409 0.28125 0  0.1375 0.41 0  0.0862762 0.29375 0  0.08886860000000001 0.24375 0  0.307812 0.338778 0  0.307812 0.292227 0  0.33216 0.279164 0  0.387888 0.266414 0  0.264063 0.31948 0  0.110937 0.07598340000000001 0  0.242188 0.07598340000000001 0  0.319914 0.11839 0  0.340625 0.1 0  0.334448 0.133793 0  0.329687 0.108539 0  0.346259 0.118491 0  0.360334 0.173636 0  0.327539 0.205033 0  0.132812 0.288712 0  0.362436 0.278836 0  0.368105 0.259418 0  0.4125 0.41 0  0.329687 0.324017 0  0.329687 0.292306 0  0.285938 0.318952 0  0.417187 0.338778 0  0.324481 0.14148 0  0.351562 0.106771 0  0.40625 0.1 0  0.341028 0.168342 0  0.319221 0.190479 0  0.335292 0.184501 0  0.305563 0.20794 0  0.220313 0.31948 0  0.132812 0.332772 0  0.0865876 0.311259 0  0.0598995 0.302453 0  0.0906541 0.343255 0  0.353543 0.255837 0  0.36574 0.237633 0  0.405007 0.254279 0  0.275795 0.352123 0  0.4125 0 0  0.35493 0.137394 0  0.366563 0.120618 0  0.35917 0.205246 0  0.198438 0.318952 0  0.0626109 0.263892 0  0.40625 0.3 0  0.354809 0.155936 0  0.386512 0.146872 0  0.373101 0.159939 0  0.384375 0.1 0  0.343394 0.19929 0  0.350682 0.185683 0  0.368101 0.189748 0  0.344016 0.221511 0  0.391108 0.213329 0  0.376279 0.204783 0  0.398843 0.182768 0  0.375804 0.222746 0  0.390665 0.196958 0  0.394004 0.23518 0  0.359883 0.222828 0  0.419908 0.204359 0  0.404243 0.204783 0  0.412615 0.224526 0  0.20625 0.41 0  0.165625 0.325257 0  0.0347982 0.244954 0  0.379558 0.247154 0  0.34165 0.147603 0  0.372264 0.136992 0  0.388988 0.121989 0  0.373437 0.108554 0  0.351562 0.31948 0  0.391367 0.16527 0  0.399572 0.223324 0  0.452011 0.227371 0  0.40877 0.239392 0  0.431491 0.237337 0  0.421224 0.250459 0  0.449619 0.262098 0  0.418865 0.276779 0  0.437063 0.252274 0  0.415673 0.263227 0  0.430988 0.266772 0  0.402767 0.273419 0  0.452967 0.244883 0  0.428125 0.3 0  0.408502 0.286186 0  0.384375 0.3 0  0.392267 0.285807 0  0.465927 0.219339 0  0.43489 0.283846 0  0.376424 0.286289 0  0.625 0.3 0  0.473533 0.205186 0  0.461713 0.255517 0  0.5375 0.3 0  0.465725 0.235405 0  0.44631 0.201425 0  0.471875 0.3 0  0.494307 0.227729 0  0.459448 0.206736 0  0.462294 0.180792 0  0.478933 0.227536 0  0.486793 0.21381 0  0.486322 0.251373 0  0.50065 0.215318 0  0.54005 0.175389 0  0.474633 0.189893 0  0.512916 0.208697 0  0.49531 0.199967 0  0.475889 0.175275 0  0.625 0.1 0  0.459311 0.153933 0  0.513645 0.242704 0  0.392892 0.248539 0  0.374815 0.271913 0  0.365974 0.14871 0  0.395312 0.109184 0  0.417061 0.123981 0  0.483196 0.277003 0  0.381967 0.179632 0  0.429898 0.219374 0  0.433473 0.206165 0  0.43149 0.181038 0  0.444208 0.215487 0  0.472985 0.247309 0  0.49375 0.3 0  0.475579 0.262714 0  0.49916 0.274293 0  0.501175 0.184809 0  0.514164 0.225681 0  0.543648 0.214977 0  0.5341630000000001 0.23481 0  0.527396 0.216171 0  0.5375 0.1 0  0.534548 0.202315 0  0.561545 0.192513 0  0.5494289999999999 0.201221 0  0.570923 0.218346 0  0.412582 0.149833 0  0.489327 0.264745 0  0.502439 0.254775 0  0.462391 0.271166 0  0.496775 0.241732 0  0.5294410000000001 0.268606 0  0.482812 0.291099 0  0.46879 0.285038 0  0.452663 0.284065 0  0.51789 0.257882 0  0.53408 0.252026 0  0.560142 0.243543 0  0.545708 0.243474 0  0.547532 0.229019 0  0.55282 0.265323 0  0.398971 0.153424 0  0.400349 0.135684 0  0.410135 0.168145 0  0.428823 0.161323 0  0.415266 0.183779 0  0.329687 0.0810483 0  0.395312 0.0612217 0  0.373437 0.318952 0  0.439062 0.324017 0  0.561816 0.229354 0  0.585029 0.239287 0  0.431827 0.139854 0  0.446796 0.168929 0  0.351562 0.07598340000000001 0  0.395313 0.318944 0  0.54337 0.150762 0  0.460937 0.31948 0  0.418412 0.137529 0  0.428125 0.1 0  0.442783 0.152332 0  0.450742 0.134294 0  0.373437 0.0805201 0  0.384383 0.342558 0  0.482812 0.318952 0  0.429239 0.127457 0  0.444274 0.117405 0  0.426548 0.113815 0  0.49375 0.1 0  0.488954 0.113984 0  0.457973 0.121842 0  0.471621 0.137346 0  0.515625 0.325257 0  0.48125 0.41 0  0.417187 0.07598340000000001 0  0.496363 0.126778 0  0.479043 0.155715 0  0.439062 0.0805201 0  0.481795 0.126919 0  0.471875 0.1 0  0.489227 0.142159 0  0.515625 0.1 0  0.520062 0.147117 0  0.501244 0.161791 0  0.505431 0.112984 0  0.505344 0.14029 0  0.526563 0.119081 0  0.5181750000000001 0.131908 0  0.539868 0.136937 0  0.460937 0.108383 0  0.474242 0.114415 0  0.460937 0.0810483 0  0.487841 0.167168 0  0.526563 0.0612217 0  0.526563 0.106406 0  0.537619 0.112743 0  0.58125 0.1 0  0.559375 0.1 0  0.482812 0.08105569999999999 0  0.471883 0.0587655 0  0.570312 0.129396 0  0.548437 0.07598340000000001 0  0.504687 0.08105569999999999 0  0.49375 0.0470127 0  0.570312 0.112663 0  0.592798 0.12103 0  0.553986 0.12103 0  0.570312 0.0805201 0  0.48125 0 0  0.114787 0.2 0  0.160769 0.284765 0  0.175816 0.288361 0  0.162602 0.116048 0  0.154687 0.07598340000000001 0  0.176562 0.0805201 0  0.0598995 0.147547 0  0.307812 0.109924 0  0.291279 0.117157 0  0.278491 0.112989 0  0.285937 0.07598340000000001 0  0.307812 0.0805201 0  0.296928 0.196743 0  0.318141 0.218507 0  0.330208 0.227509 0  0.301397 0.225668 0  0.302706 0.241401 0  0.292574 0.21424 0  0.282762 0.230935 0  0.284351 0.244775 0  0.269553 0.23261 0  0.278572 0.217242 0  0.226924 0.342606 0  0.446928 0.185396 0  0.515625 0.3 0  0.504687 0.288879 0  0.515256 0.276534 0  0.529479 0.285328 0  0.58125 0.3 0  0.541969 0.272936 0  0.559375 0.3 0  0.556796 0.282529 0  0.543473 0.287206 0  0.581429 0.267774 0  0.566728 0.271171 0  0.570869 0.255585 0  0.577404 0.283865 0  0.603125 0.3 0  0.597531 0.28035 0  0.570312 0.338778 0  0.592188 0.292492 0  0.603513 0.256094 0  0.614063 0.286265 0  0.610329 0.27064 0  0.632708 0.251285 0  0.657223 0.261594 0  0.618789 0.257807 0  0.614188 0.22987 0  0.630935 0.265614 
[...]
<PointData  Vectors="v"> 
	<DataArray  type="Float64"  Name="v"  NumberOfComponents="3" format="ascii">
0.0 0.0 0.0 0.0 0.0 0.0 0.0 0.0 0.0 0.0 0.0 0.0 0.7922629873819268 -0.17860049546649515 0.0 0.8477631278727368 0.20253025130396116 0.0 0.5222188399588564 -0.053100998697304815 0.0 1.0133370975049212 0.1591212678151864 0.0 0.0 0.0 0.0 0.0 0.0 0.0 0.0 0.0 0.0 0.0 0.0 0.0 0.0 0.0 0.0 0.0 0.0 0.0 0.0 0.0 0.0 0.0 0.0 0.0 0.0 0.0 0.0 0.0 0.0 0.0 0.0 0.0 0.0 0.0 0.0 0.0 0.0 0.0 0.0 0.0 0.0 0.0 0.0 0.0 0.0 0.0 0.0 0.0 0.0 0.0 0.0 0.0 0.0 0.0 0.0 0.0 0.0 0.0 0.0 0.0 0.0 0.0 0.0 0.0 0.0 0.0 0.0 0.0 0.0 0.0 0.0 0.0 0.0 0.0 0.0 0.0 0.0 0.0 0.0 0.0 0.0 0.0 0.0 0.0 0.0 0.0 0.0 0.0 0.0 0.0 0.0 0.0 0.0 0.0 0.0 0.0 0.0 0.0 0.0 0.7662247287850598 0.013356787472711825 0.0 1.1260774569904883 0.32252071470255056 0.0 0.9718759751091135 0.029415946273768808 0.0 0.0 0.0 0.0 1.2904803198363033 -0.06275851450972278 0.0 1.3114244875986407 -0.015352755110306496 0.0 0.0 0.0 0.0 0.0 0.0 0.0 1.0 0.0 0.0 0.0 0.0 0.0 0.0 0.0 0.0 0.0 0.0 0.0 0.8435393150960199 -0.2146722656492335 0.0 1.1439140227251314 -0.2949146712827348 0.0 0.8751798395314212 0.23596960414141915 0.0 1.1884287525729176 0.2819996392040475 0.0 0.43368552025458285 0.010876049949956453 0.0 0.25060657894974664 0.010436962812350535 0.0 0.1724484811774737 -0.013273963639306243 0.0 -0.0451972862892996 -0.024597063644922142 0.0 -0.05469643709347719 0.13270464344687188 0.0 0.3361182028410658 -0.266138129413149 0.0 0.8662816180288946 -0.6615894659714936 0.0 0.6446197638642341 -0.6809397341509799 0.0 1.235275047375522 -0.5963370206996305 0.0 0.3053590984834087 0.005798800525669401 0.0 0.33890382297365584 0.2873236542580186 0.0 0.6669676498408165 0.6893923192829178 0.0 1.2551012258998075 0.6028747072675366 0.0 0.3886162191849268 -0.022784066924913485 0.0 1.2957822488595734 0.12944775510100165 0.0 0.0027182468813803477 0.07493249368636883 0.0 1.2628401752878542 -0.1663878886891146 0.0 -0.0190690891417503 -0.02511007811081021 0.0 -0.0392957480349664 0.04013351303188679 0.0 1.2180328370925881 -0.3950833298253186 0.0 1.1191847840341862 -0.7222109297131105 0.0 0.8941825520595049 0.7949476286153814 0.0 1.3054199335169312 0.4038792436568042 0.0 1.01008247667754 0.16181440446956993 0.0 -0.037640037417070636 0.12661084599088088 0.0 0.9145337081985923 -0.15889179244961785 0.0 -0.030373965623233277 -0.0235978195139084 0.0 -0.040462491132864105 0.10347105180208661 0.0 1.0939033569766787 0.7439069234954601 0.0 0.4585801407588589 0.5510433517842641 0.0 0.6430789096269381 0.018442493197262905 0.0 0.1897896199145061 0.05289796401867568 0.0 0.5456671758358393 -0.02928091810150502 0.0 0.06589899182182485 -0.02702991670156238 0.0 -0.1437407141069656 0.009133798215919914 0.0 0.9826696044515275 0.2924533691339832 0.0 1.2728051562989924 0.19989254042954108 0.0 1.367233941301381 0.15264303811707375 0.0 1.2158584191338246 -0.23682557956229375 0.0 1.2905308677984848 -0.19077513290667908 0.0 1.378742700570523 0.2176871299094967 0.0 1.303583278976492 -0.24213670252283698 0.0 0.4439000181729654 -0.5345762665432157 0.0 0.8043655963222489 -0.12319571272004017 0.0 0.6743795723612717 -0.40388692767060896 0.0 0.9098302465056939 0.6033204311196809 0.0 0.8079719697428668 0.15514854585840404 0.0 0.695766061054856 0.43363883478722093 0.0 1.1109483635637125 -0.172603087864105 0.0 0.31778906995188455 0.02214342293284059 0.0 0.19798512075093938 -0.0051520808406863225 0.0 -0.10236623260519657 -0.021653921865561636 0.0 1.34075459395067 0.40755316907328465 0.0 1.032424295475158 0.03055050990368275 0.0 1.2890462692474003 -0.42769716037703265 0.0 0.8999248869583318 -0.05390559830509836 0.0 1.3844617121583482 0.3311497702869735 0.0 1.3007099172084637 0.3151202157178426 0.0 1.321975173345903 -0.3528408005358811 0.0 1.2526071792293467 -0.32064736261101384 0.0 0.586988150342112 -0.14474443620429028 0.0 0.7990173340092892 -0.31474895986276974 0.0 1.0561838115631468 0.6020968732581766 0.0 0.6015524535210628 0.16612342237880853 0.0 0.8287109867552895 0.3400456813320799 0.0 1.0975769488077425 -0.048308934284764474 0.0 0.9043201152374855 -0.016058037185319705 0.0 -0.04095189568746519 -0.06766342127907068 0.0 1.315777010646316 0.05081801456508553 0.0 0.9253229219892152 -0.2958446560231078 0.0 1.28128623623734 -0.10774231219466336 0.0 0.6171980299956833 -0.013713705459756049 0.0 0.4270138883139178 -0.0005128838570897376 0.0 -0.1533411925187089 -0.12524837623351734 0.0 1.079418420918356 0.30785999113305607 0.0 0.967874301122239 0.3832071281204354 0.0 1.1949097516026401 0.007629733133233231 0.0 0.9286260565855265 -0.036501421563359455 0.0 1.319910170559419 0.11379275365722634 0.0 1.0233806917685548 -0.3100598945435029 0.0 1.0899257776214328 -0.5490232298833542 0.0 0.9328391242461486 -0.3683284758411153 0.0 1.0038558471804653 -0.41497861603751274 0.0 0.9397137323891791 -0.5256229530466047 0.0 0.8684999990275297 -0.38784508376896853 0.0 1.3610966288089916 0.08277951030768273 0.0 1.297105013909788 -0.13641445887576173 0.0 0.8516176797514545 -0.2175839490358028 0.0 0.878994572152513 -0.2903156740056092 0.0 0.8537669882860096 -0.2808879728012365 0.0 0.8460584336625474 -0.23547679133284266 0.0 0.851534592490567 -0.2332288821676224 0.0 0.8949725815429376 -0.29765318494100634 0.0 1.3424248612891612 0.1706846302944627 0.0 1.148896765939471 -0.22463128010661013 0.0 1.361563600519754 0.24522153540795727 0.0 1.2991366649948712 -0.20236715974705374 0.0 0.0 0.0 0.0 0.0 0.0 0.0 1.302792196975893 -0.2704193417273139 0.0 0.7173245235387967 -0.25148014246356004 0.0 0.8217465146935252 -0.19415568535096536 0.0 0.8728085485510685 -0.0955759315278823 0.0 0.8633566748572126 -0.14762574363844908 0.0 0.9375 0.0 0.0 0.7500000000000001 0.0 0.0 0.7343019188145239 0.27842119582957087 0.0 0.8343489724028861 0.2100342228323803 0.0 0.7499999999999999 0.0 0.0 0.8764826333753525 0.13824469631437264 0.0 0.931832223730637 0.051946337506036694 0.0 0.8530563423848619 0.057964085815256014 0.0 -0.1109042920023266 -0.07615031996004684 0.0 0.030393787181353566 -0.1018838907978538 0.0 1.1654778195516955 0.5355196168132522 0.0 1.0532696734344378 0.4595762696301566 0.0 0.8911705448746415 0.24596931009064857 0.0 1.3318542361702685 -0.012409632100058427 0.0 1.2450468734723854 -0.13105165263165264 0.0 0.5461842448827208 -0.0703279975847967 0.0 1.2924665678687521 -0.08136546687934841 0.0 1.0854067889773669 -0.10475014919474859 0.0 1.3202023410977433 -0.0666035656625672 0.0 0.9079955671351718 -0.22956693032539136 0.0 0.8740257523596747 -0.15675650764059984 0.0 0.12564786916427229 -0.14483473986037124 0.0 1.231256633437356 -0.17557738089205369 0.0 0.5148585190519999 -0.1678881258598937 0.0 0.36897133123932124 -0.3034531883663445 0.0 0.5605779473280331 -0.2439808206323923 0.0 0.9941329811932785 -0.2854925090973392 0.0 0.8843199089644177 -0.28068572568896033 0.0 1.1927552655688431 -0.16942384967160393 0.0 0.7817954956444487 -0.007971532086612753 0.0 1.2592297292603258 -0.07198354132991815 0.0 0.07799475751992743 -0.0500944326642236 0.0 1.135925472446357 0.05095305169171225 0.0 0.8905449529103527 0.18422431062840247 0.0 0.6859318962995361 -0.14952807511568472 0.0 1.0242115208948774 -0.046846391260395887 0.0 1.0037841081344367 -0.1780418865132478 0.0 0.8633636641549475 -0.16627007683119702 0.0 0.8784857846144659 -0.011789635091395797 0.0 0.4158490295986291 -0.008707698533396252 0.0 0.2396003994987952 -0.05060994060945374 0.0 1.2986460422144666 0.018128637099170165 0.0 0.27936602794733667 -0.12314113846284148 0.0 1.2964223312660876 -0.02280134102409542 0.0 0.18599237403549573 -0.10552327215348212 0.0 0.6236349697692605 -0.015389641294456115 0.0 -0.042370103573253354 -0.19448069656588846 0.0 0.638364486659275 -0.009036497324180699 0.0 0.8944119186912638 0.29897885458301116 0.0 0.9009219918311483 0.4135495674914972 0.0 0.8957382119985509 0.25734884399785096 0.0 0.9169646362991405 0.11782030109954875 0.0 0.8740342725931558 0.2197533272924993 0.0 0.9198113725887229 0.29814577854107416 0.0 0.8659948333421092 0.22601865853149553 0.0 0.8078093873763204 0.17473528404343225 0.0 0.8729066733979337 0.16308198313260286 0.0 0.0 0.0 0.0 0.8472109357200621 0.17512018793376888 0.0 0.8787900053991603 0.17912384708453752 0.0 1.0228916582955654 -0.06893929115995705 0.0 1.291504781528596 -0.13538515269619494 0.0 1.167385656422913 -0.22601613906537824 0.0 0.7695690512801673 -0.26151586620212036 0.0 1.186063159478011 0.006835528148495205 0.0 0.7093533655712091 -0.1562745016573061 0.0 1.1077050601825207 -0.10178016850538751 0.0 1.1361729624855035 0.004333262393975173 0.0 1.3137976639381945 0.061324156053220356 0.0 0.7597370910175825 -0.017779902191009615 0.0 1.2861339962751441 0.032414560078556365 0.0 1.1876593837384346 0.04748839355443368 0.0 0.12438390533364227 -0.26097358819352495 0.0 -0.25316682094248133 -0.23226771939124502 0.0 0.9635614497255104 0.3265067321296059 0.0 1.0528925911630307 -0.25598564707457594 0.0 0.7150681161915391 -0.3241962892300518 0.0 0.0 0.0 0.0 1.0886315556015236 -0.10986373066761186 0.0 1.2380800109665526 -0.19122246708977983 0.0 1.185302392616313 -0.03821109921735662 0.0 0.8910518771130744 -0.03875650162232738 0.0 0.5057093096201559 -0.05738391081840151 0.0 1.3124765252501684 0.0860357127958445 0.0 1.2749031608062806 0.24609790215096386 0.0 0.10842720438370211 -0.22534728802254772 0.0 -0.2047067428119943 -0.18717063096477005 0.0 -0.15146299459323517 -0.26072417038996504 0.0 -0.198139379968022 -0.08198760871608753 0.0 1.1543908647510615 0.11429198395303347 0.0 0.7791416003620919 0.1784666999527998 0.0 0.7820276403829195 0.15020858607370063 0.0 0.7883153164319128 0.10768703696876838 0.0 0.6213023100578712 0.10527341343162455 0.0 0.6728185009720082 -0.32670736689479096 0.0 0.18340000443134663 -0.38619450517458465 0.0 0.419249886550331 -0.2635644270868295 0.0 0.9271023817249657 -0.014421632010082798 0.0 0.0 0.0 0.0 0.7829080901249694 -0.015958003558857018 0.0 1.210907609013784 0.09998752926521079 0.0 -0.2573209182673303 -0.3990961021201868 0.0 1.0867976081230595 0.18816406833882315 0.0 0.9040605144020051 0.11708993352227594 0.0 1.001211983533797 -0.09156220673993683 0.0 0.40918204627729954 -0.14775475610460956 0.0 0.8111234528917168 0.03753689123371575 0.0 0.46960839210845007 -0.13132554920946876 0.0 1.313111680211482 0.18294685849052755 0.0 -0.2479606780367607 -0.3156379289446881 0.0 -0.1204031967403797 -0.3161485780197016 0.0 -0.10285030328870753 -0.34819278407939297 0.0 -0.10623332953433719 -0.3231803126859168 0.0 -0.17674693066275154 -0.4003700061637037 0.0 -0.20327769203735455 -0.4111503531095051 0.0 0.23781102985340624 -0.15826324960937724 0.0 -0.12182326439064485 -0.4364085402076545 0.0 -0.055151527191062144 -0.3173372940214981 0.0 0.03924120508280966 -0.3892674117842344 0.0 -0.10766581447671371 -0.39585613279978255 0.0 0.06377087690714495 -0.11455748121035568 0.0 -0.0577770314247657 -0.2723113040278867 0.0 -0.09739978933822925 -0.30634630199539087 0.0 0.0 0.0 0.0 0.9454042086069835 0.21384484143706783 0.0 0.9522233593979323 0.04515378852793185 0.0 0.3832195939644922 -0.35846074811832473 0.0 0.4749184747065498 -0.09932729882571334 0.0 0.9158914987698341 0.04311979329522675 0.0 1.2706088159100002 0.1879429002850139 0.0 1.329135145397507 0.15299312135295853 0.0 1.0754582643227266 -0.12472954107850967 0.0 0.5129474070930555 -0.0730909939498258 0.0 -0.12837669994341233 -0.38541879361904063 0.0 0.09179180074838081 0.06400207302070055 0.0 0.07264611055153389 -0.32632280910772216 0.0 0.009252686047896875 -0.17894105303153413 0.0 0.24620073952410876 -0.22209130169566227 0.0 0.38095799423412685 -0.025470670309210738 0.0 0.8027975399362633 -0.1034701146837876 0.0 0.2183395060047986 -0.12837131068616797 0.0 0.560917256867313 -0.17895889721926958 0.0 0.5649336087209238 -0.10477156217000122 0.0 0.8178465291453932 -0.18077173690034376 0.0 0.11238266803067432 -0.013959669292503602 0.0 0.9762210160827858 -0.03453664041930377 0.0 0.9412009569734927 -0.11186336692018041 0.0 1.0519072825539113 -0.14437679426628441 0.0 0.9847170794275971 -0.17026574541060557 0.0 0.24678720045722663 0.2467914455613829 0.0 0.84889278329817 -0.02331584093967044 0.0 1.0498404484518948 -0.20632592501580832 0.0 1.1179818550509777 -0.294140816824091 0.0 0.4520943976350329 0.4138190254402857 0.0 0.2538432665879517 0.03687357297156272 0.0 1.1827312491726618 -0.023201598062618605 0.0 0.14689528608482819 0.14140530016913752 0.0 0.30818520299427543 0.19241834658193102 0.0 0.9952885715001931 0.06638060189341191 0.0 0.3642429678352627 0.3759031140424449 0.0 0.33402556278295636 0.29295372948214327 0.0 0.7283940452068955 0.4696829969167396 0.0 0.27962734515292537 0.29433815724194395 0.0 0.43711210042396037 0.4184257391467489 0.0 0.2746845437101344 0.20819576720605204 0.0 0.49437915856317827 0.45348065059946574 0.0 0.760420342850286 0.37331662287903594 0.0 0.6519368288319942 0.48941307174695514 0.0 0.587775284472779 0.4790186477171154 0.0 0.6114337138790079 0.5025716168038339 0.0 0.8434096728038187 0.5501279222225299 0.0 0.5970406968944572 -0.08230958182534102 0.0 1.0690541858724918 0.5141079756570955 0.0 0.38683120180639535 0.37817957240781425 0.0 0.34703513570743366 -0.33277249764538813 0.0 0.9171615978725082 -0.2656531514139825 0.0 0.6230013191218212 -0.06970977215077905 0.0 1.328620235758173 0.23866412089348568 0.0 1.2939465884415957 0.33104125197240347 0.0 0.6848898408236356 0.11764746028017085 0.0 0.16461942063015803 -0.24105763933863916 0.0 -0.007946447829277756 -0.1279882924027149 0.0 0.14643941396524032 0.019614541424694754 0.0 0.5305333903300864 0.17042303272491305 0.0 0.12011991702689835 0.058742297160508286 0.0 0.19478630523359178 0.14073053079746786 0.0 1.042037774824973 0.07511122383687407 0.0 0.38686389701210816 0.10909247635425103 0.0 0.679949706128365 0.15866068458015392 0.0 0.7597871868664559 0.5313052397266573 0.0 0.4607601771644126 0.4344059031730989 0.0 0.550828184665015 0.4737713553485817 0.0 0.4683433285648317 0.441757740071654 0.0 0.5528037299916142 0.46141421568537233 0.0 0.7863176120682696 0.11965326263356765 0.0 0.6364916357677995 0.4470893796969958 0.0 0.5998461413362974 0.41649297122288503 0.0 0.6106977376424805 0.441734095861463 0.0 0.6030345206040079 0.3736432979627532 0.0 0.9518754662484844 0.2054065743249557 0.0 0.4613119734162364 0.17265363151954377 0.0 0.38172168560673686 0.27503552122277936 0.0 0.5557586216853642 0.047595123101492554 0.0 0.2983107888181648 0.3148473171820595 0.0 0.7733817772837703 0.1950870637620117 0.0 0.929548363854466 0.09268960464986578 0.0 0.8251736120668035 0.0754261105851945 0.0 0.8205316267383906 0.026165323489779367 0.0 0.5124015247023082 0.29011251725213955 0.0 0.5650748128793243 0.3237406713140175 0.0 0.7146496120564442 0.2683965638496282 0.0 0.5814009633735012 0.3643385485102476 0.0 0.5242235855093778 0.44995621225753074 0.0 0.9374393986963728 0.11107825900201335 0.0 0.7856414015828914 0.07262978589773363 0.0 1.1255315224299873 0.20271499192720419 0.0 0.603282979886416 0.05377471823219718 0.0 0.861291525036861 0.2801143457430481 0.0 0.35375508392252425 -0.023833005752213348 0.0 1.2176254213706608 0.045442611101751636 0.0 1.0000537576775654 0.14998409412407585 0.0 1.0331179865210685 -0.11132708394056229 0.0 0.9681137962704159 0.0012919411627890071 0.0 0.603860316795599 0.38209686628372813 0.0 0.9131348818075471 0.039596477135465574 0.0 1.1869528548654769 0.3946635491490263 0.0 0.8331123830016237 0.4028501173359628 0.0 1.1775804016961824 0.08775218861414978 0.0 0.9919728178429937 -0.08354342655051769 0.0 0.8077419373620606 0.2694614350709168 0.0 0.9966088921030049 0.03122950173886793 0.0 1.1741229941017515 0.3184806004969235 0.0 1.2167205023669623 0.30052637766305085 0.0 1.0630477579914963 0.43612132627232814 0.0 1.2052247231854907 0.46662864097196005 0.0 1.199167094120844 0.1382307994612401 0.0 0.8966327384011721 -0.07384674572281952 0.0 1.0377864558796863 0.039489695420809726 0.0 1.2728679367971252 0.38290810177685036 0.0 1.2236098781708447 0.402338096534717 0.0 1.2868171152202896 0.35264544924628244 0.0 0.9398948635517554 0.268250685592298 0.0 1.016563564270222 0.3422642180960274 0.0 1.1806280950135766 0.42562101810696923 0.0 1.121770015534472 0.486729298014271 0.0 1.0646049631778052 -0.00723815430217498 0.0 0.0 0.0 0.0 1.0692564423972735 0.21972108736477497 0.0 1.0065474739578655 0.37540556528052743 0.0 1.0203256834682817 0.5376885949534189 0.0 1.0408733652102575 0.2544481695652423 0.0 1.0764863609877342 0.42060991749146964 0.0 1.0339637997178612 0.3094268567060669 0.0 1.0391182684508589 0.4688734489372568 0.0 0.8542080387292285 0.19604165581574523 0.0 0.9043446516790001 0.36610416452311856 0.0 0.9299205708741048 0.501420850238003 0.0 0.9357339405123511 0.2860204829957502 0.0 0.9692914590094494 0.4047333733194704 0.0 0.8700822481329072 0.2265013769769311 0.0 0.918021191797865 0.3140475367692513 0.0 0.8315584083358408 0.23276859953294476 0.0 1.1245415312723437 0.364549442527418 0.0 1.078668600117251 0.3758979821046346 0.0 0.9615178267569761 0.25415987748225305 0.0 0.9272796602061533 0.550518687180483 0.0 0.5809984069480718 0.06084593632098956 0.0 0.8402677854523065 0.1823326571152562 0.0 0.8172370161045462 0.157094610262667 0.0 0.6892209257089122 -0.037854024117562404 0.0 0.7270031007699954 0.037351196576993526 0.0 0.871489505300041 0.2208934427737568 0.0 0.7093710556472077 0.142939218011305 0.0 0.72295809901169 0.0782229128752815 0.0 0.6484767014998907 0.026335353866187936 0.0 0.7981342985658679 0.16992770284723993 0.0 0.48402044698591995 0.07838644107613874 0.0 0.7239410494460075 0.02540692809084334 0.0 0.6401044635317759 0.003380452354400826 0.0 0.7782026300515323 0.1149117860331124 0.0 0.6506978997717938 -0.026529497223468663 0.0 0.0 0.0 0.0 0.6505068449827172 0.00910088178039795 0.0 1.1122508214678721 0.40153561393714116 0.0 1.2089895270837754 0.36901599766400295 0.0 1.0886260435133346 -0.39433544994591385 0.0 0.8482526026963833 -0.20021451914705954 0.0 0.9590463782923734 -0.2183410358121463 0.0 0.8924583814665791 -0.07255257452469759 0.0 1.2700169153726137 -0.006758638611032742 0.0 1.1689973575997619 -0.020023829876790234 0.0 1.2457559103353857 -0.045013536276283864 0.0 1.160129426800606 -0.022949622722995205 0.0 1.2042218743008029 0.008587762242055718 0.0 -0.18823476702881953 -0.06455094573779001 0.0 -0.13375010271627458 -0.1451288235321244 0.0 -0.010451738735347858 -0.24075049906511028 0.0 -0.04106251296192582 -0.028361111052619015 0.0 0.23406602002360608 -0.05345638308370788 0.0 -0.13441754341504558 0.00787507117965078 0.0 0.013937601369444871 0.06985320704118635 0.0 0.24256536810601237 0.019872108507763536 0.0 0.008390414963581245 0.11539220731731273 0.0 -0.08860145515594675 0.07828369480134643 0.0 0.9699693671889983 0.07756430686919762 0.0 0.557175937008285 0.30770862910334384 0.0 1.1090646837720937 0.04255328921908253 0.0 0.9588064374957874 0.10496422829158504 0.0 0.810599370904132 0.1563203446825273 0.0 1.0388550175365314 0.07292357778000327 0.0 1.236790769343706 -0.2080035483928195 0.0 0.9515659026948422 0.108974699506207 0.0 1.236141481643043 -0.12003982151850875 0.0 1.1721061698382966 -0.04788707955641791 0.0 1.1397548663702428 -0.000219749461277671 0.0 1.1917697654514154 -0.14808976487428888 0.0 1.1252753712896901 -0.047650030417356964 0.0 0.9719109874873049 0.05030504885864636 0.0 1.2638066395617351 -0.18096882061549227 0.0 1.1986136286341593 -0.27171435630534957 0.0 1.2857290205697223 -0.2892838023449727 0.0 0.9143919608797353 -0.11735831701345209 0.0 1.2615312807183756 -0.26537835359845113 0.0 1.2102951701901183 -0.2838473899260664 0.0 1.2413574143180033 -0.33698604507711966 0.0 1.2824228308334236 -0.35311967280789713 0.0 1.2293147362627992 -0.452509806399249 0.0 1.1595353233354744 -0.4214783072369285 0.0 1.2520784401820566 -0.39308037671316187 0.0 1.0313388716768026 -0.2563891216307425 0.0 1.2470674096446437 -0.4198914744057609 0.0 1.1794386535337928 -0.3768477904924865 0.0 0.921604440093158 -0.2118550068617737 0.0 1.1006106289172097 -0.47307715345845813 0.0 0.7553704575557417 -0.07059346430459823 0.0 1.19047599706904 -0.3632515080919416 0.0 1.1734107429097835