<?xml version="1.0"?>
<VTKFile type="UnstructuredGrid"  version="0.1"  >
<UnstructuredGrid>
<Piece  NumberOfPoints="1289" NumberOfCells="2413">
<Points>
<DataArray  type="Float64"  NumberOfComponents="3"  format="ascii">0 0 0  0 0.41 0  2.2 0.41 0  2.2 0 0  0.1 0.1 0  0.1 0.3 0  0.8 0.3 0  0.8 0.1 0  0.25 0.2 0  0.248976 0.210065 0  0.245948 0.219718 0  0.241038 0.228563 0  0.234448 0.23624 0  0.226448 0.242432 0  0.217365 0.246888 0  0.207571 0.249423 0  0.197468 0.249936 0  0.187467 0.248404 0  0.17798 0.24489 0  0.169395 0.239539 0  0.162062 0.232569 0  0.156283 0.224265 0  0.152293 0.214968 0  0.150257 0.205058 0  0.150257 0.194942 0  0.152293 0.185032 0  0.156283 0.175735 0  0.162062 0.167431 0  0.169395 0.160461 0  0.17798 0.15511 0  0.187467 0.151596 0  0.197468 0.150064 0  0.207571 0.150577 0  0.217365 0.153112 0  0.226448 0.157568 0  0.234448 0.16376 0  0.241038 0.171437 0  0.245948 0.180282 0  0.248976 0.189935 0  1.1 0 0  1.1 0.41 0  0.1 0.2 0  0.45 0.1 0  0.45 0.3 0  0.55 0 0  0.275 0.1 0  0.275 0.3 0  0.275 0 0  0.55 0.41 0  0 0.205 0  0.825 0 0  0.825 0.41 0  0.275 0.41 0  0.1 0.15 0  0.1875 0.1 0  0.1 0.25 0  0.1875 0.3 0  0.132322 0.2 0  0.241426 0.253518 0  0.241426 0.146482 0  0.264574 0.17974 0  0.264574 0.22026 0  0.138434 0.187348 0  0.153372 0.150948 0  0.148413 0.164094 0  0.176495 0.136535 0  0.22768 0.143571 0  0.138434 0.212652 0  0.148413 0.235906 0  0.176495 0.263465 0  0.22768 0.256429 0  0.23125 0.3 0  0.24769 0.24094 0  0.23125 0.1 0  0.24769 0.15906 0  0.26253 0.193641 0  0.190482 0.137872 0  0.166753 0.146661 0  0.157737 0.244461 0  0.190482 0.262128 0  0.203107 0.261264 0  0.253635 0.22977 0  0.203107 0.138736 0  0.253635 0.17023 0  0.261028 0.206206 0  0.167707 0.251809 0  0.143629 0.224191 0  0.215302 0.2591 0  0.270465 0.245894 0  0.215302 0.1409 0  0.270465 0.154106 0  0.284052 0.202587 0  0.14375 0.3 0  0.209375 0.3 0  0.225966 0.278501 0  0.209375 0.1 0  0.225966 0.121499 0  0.211613 0.273759 0  0.211613 0.126241 0  0.143629 0.175809 0  0.1 0.175 0  0.133484 0.164832 0  0.144491 0.249539 0  0.1 0.225 0  0.133484 0.235168 0  0.3625 0.3 0  0.25691 0.253381 0  0.25691 0.146619 0  0.277205 0.188698 0  0.184724 0.275712 0  0.237372 0.268285 0  0.184724 0.124288 0  0.237372 0.131715 0  0.197578 0.273149 0  0.193656 0.286994 0  0.197578 0.126851 0  0.193656 0.113006 0  0.122953 0.187671 0  0.118362 0.153758 0  0.155372 0.258107 0  0.122953 0.212329 0  0.118362 0.246242 0  0.276394 0.27264 0  0.276394 0.12736 0  0.280965 0.170013 0  0.253125 0.3 0  0.14375 0.1 0  0.253125 0.1 0  0.269489 0.26014 0  0.269489 0.13986 0  0.303639 0.184297 0  0.165625 0.3 0  0.134742 0.273113 0  0.257831 0.274737 0  0.255279 0.128499 0  0.3625 0.1 0  0.165625 0.1 0  0.162031 0.132368 0  0.134955 0.126405 0  0.149334 0.125568 0  0.142936 0.139597 0  0.12695 0.140259 0  0.242514 0.285501 0  0.242514 0.114499 0  0.1 0.125 0  0.117483 0.12555 0  0.11154 0.139776 0  0.121875 0.1 0  0.109143 0.1125 0  0.126805 0.114 0  0.220313 0.29129 0  0.351562 0.287369 0  0.207222 0.2866 0  0.220312 0.10871 0  0.1375 0 0  0.20625 0 0  0.207222 0.1134 0  0.11722 0.17118 0  0.1 0.1625 0  0.0778409 0.16875 0  0.0862762 0.15625 0  0 0.15375 0  0 0.1025 0  0.11722 0.22882 0  0.1 0.2375 0  0 0.3075 0  0.0862762 0.23125 0  0.0598995 0.222547 0  0.0860223 0.2125 0  0.289584 0.181469 0  0.300267 0.16446 0  0.163832 0.269071 0  0.149597 0.273325 0  0.1 0.275 0  0.268498 0.285953 0  0.31875 0.3 0  0.294154 0.254672 0  0.296875 0.3 0  0.293558 0.271845 0  0.285095 0.286799 0  0.324298 0.264316 0  0.307866 0.263745 0  0.317093 0.234901 0  0.315485 0.281219 0  0.316547 0.250625 0  0.344693 0.243731 0  0.331592 0.251147 0  0.35129 0.270663 0  0.338689 0.263683 0  0.340625 0.3 0  0.249849 0.264383 0  0.265097 0.11422 0  0.284688 0.156136 0  0.242188 0.324017 0  0.0856613 0.2625 0  0.132812 0.0612217 0  0.264062 0.0612217 0  0.198437 0.07598340000000001 0  0.0860223 0.1375 0  0.0794526 0.191089 0  0.285228 0.140397 0  0.298655 0.148737 0  0.31875 0.1 0  0.327335 0.15374 0  0.296875 0.1 0  0.312289 0.155283 0  0.313348 0.135607 0  0.321802 0.173916 0  0.298433 0.134116 0  0.112124 0.2625 0  0.127526 0.259083 0  0.121875 0.3 0  0.0682687 0.241503 0  0.1 0.2875 0  0.117762 0.28125 0  0.107813 0.3 0  0.103906 0.313849 0  0.0778409 0.28125 0  0.1375 0.41 0  0.0862762 0.29375 0  0.08886860000000001 0.24375 0  0.307812 0.338778 0  0.307812 0.292227 0  0.33216 0.279164 0  0.387888 0.266414 0  0.264063 0.31948 0  0.110937 0.07598340000000001 0  0.242188 0.07598340000000001 0  0.319914 0.11839 0  0.340625 0.1 0  0.334448 0.133793 0  0.329687 0.108539 0  0.346259 0.118491 0  0.360334 0.173636 0  0.327539 0.205033 0  0.132812 0.288712 0  0.362436 0.278836 0  0.368105 0.259418 0  0.4125 0.41 0  0.329687 0.324017 0  0.329687 0.292306 0  0.285938 0.318952 0  0.417187 0.338778 0  0.324481 0.14148 0  0.351562 0.106771 0  0.40625 0.1 0  0.341028 0.168342 0  0.319221 0.190479 0  0.335292 0.184501 0  0.305563 0.20794 0  0.220313 0.31948 0  0.132812 0.332772 0  0.0865876 0.311259 0  0.0598995 0.302453 0  0.0906541 0.343255 0  0.353543 0.255837 0  0.36574 0.237633 0  0.405007 0.254279 0  0.275795 0.352123 0  0.4125 0 0  0.35493 0.137394 0  0.366563 0.120618 0  0.35917 0.205246 0  0.198438 0.318952 0  0.0626109 0.263892 0  0.40625 0.3 0  0.354809 0.155936 0  0.386512 0.146872 0  0.373101 0.159939 0  0.384375 0.1 0  0.343394 0.19929 0  0.350682 0.185683 0  0.368101 0.189748 0  0.344016 0.221511 0  0.391108 0.213329 0  0.376279 0.204783 0  0.398843 0.182768 0  0.375804 0.222746 0  0.390665 0.196958 0  0.394004 0.23518 0  0.359883 0.222828 0  0.419908 0.204359 0  0.404243 0.204783 0  0.412615 0.224526 0  0.20625 0.41 0  0.165625 0.325257 0  0.0347982 0.244954 0  0.379558 0.247154 0  0.34165 0.147603 0  0.372264 0.136992 0  0.388988 0.121989 0  0.373437 0.108554 0  0.351562 0.31948 0  0.391367 0.16527 0  0.399572 0.223324 0  0.452011 0.227371 0  0.40877 0.239392 0  0.431491 0.237337 0  0.421224 0.250459 0  0.449619 0.262098 0  0.418865 0.276779 0  0.437063 0.252274 0  0.415673 0.263227 0  0.430988 0.266772 0  0.402767 0.273419 0  0.452967 0.244883 0  0.428125 0.3 0  0.408502 0.286186 0  0.384375 0.3 0  0.392267 0.285807 0  0.465927 0.219339 0  0.43489 0.283846 0  0.376424 0.286289 0  0.625 0.3 0  0.473533 0.205186 0  0.461713 0.255517 0  0.5375 0.3 0  0.465725 0.235405 0  0.44631 0.201425 0  0.471875 0.3 0  0.494307 0.227729 0  0.459448 0.206736 0  0.462294 0.180792 0  0.478933 0.227536 0  0.486793 0.21381 0  0.486322 0.251373 0  0.50065 0.215318 0  0.54005 0.175389 0  0.474633 0.189893 0  0.512916 0.208697 0  0.49531 0.199967 0  0.475889 0.175275 0  0.625 0.1 0  0.459311 0.153933 0  0.513645 0.242704 0  0.392892 0.248539 0  0.374815 0.271913 0  0.365974 0.14871 0  0.395312 0.109184 0  0.417061 0.123981 0  0.483196 0.277003 0  0.381967 0.179632 0  0.429898 0.219374 0  0.433473 0.206165 0  0.43149 0.181038 0  0.444208 0.215487 0  0.472985 0.247309 0  0.49375 0.3 0  0.475579 0.262714 0  0.49916 0.274293 0  0.501175 0.184809 0  0.514164 0.225681 0  0.543648 0.214977 0  0.5341630000000001 0.23481 0  0.527396 0.216171 0  0.5375 0.1 0  0.534548 0.202315 0  0.561545 0.192513 0  0.5494289999999999 0.201221 0  0.570923 0.218346 0  0.412582 0.149833 0  0.489327 0.264745 0  0.502439 0.254775 0  0.462391 0.271166 0  0.496775 0.241732 0  0.5294410000000001 0.268606 0  0.482812 0.291099 0  0.46879 0.285038 0  0.452663 0.284065 0  0.51789 0.257882 0  0.53408 0.252026 0  0.560142 0.243543 0  0.545708 0.243474 0  0.547532 0.229019 0  0.55282 0.265323 0  0.398971 0.153424 0  0.400349 0.135684 0  0.410135 0.168145 0  0.428823 0.161323 0  0.415266 0.183779 0  0.329687 0.0810483 0  0.395312 0.0612217 0  0.373437 0.318952 0  0.439062 0.324017 0  0.561816 0.229354 0  0.585029 0.239287 0  0.431827 0.139854 0  0.446796 0.168929 0  0.351562 0.07598340000000001 0  0.395313 0.318944 0  0.54337 0.150762 0  0.460937 0.31948 0  0.418412 0.137529 0  0.428125 0.1 0  0.442783 0.152332 0  0.450742 0.134294 0  0.373437 0.0805201 0  0.384383 0.342558 0  0.482812 0.318952 0  0.429239 0.127457 0  0.444274 0.117405 0  0.426548 0.113815 0  0.49375 0.1 0  0.488954 0.113984 0  0.457973 0.121842 0  0.471621 0.137346 0  0.515625 0.325257 0  0.48125 0.41 0  0.417187 0.07598340000000001 0  0.496363 0.126778 0  0.479043 0.155715 0  0.439062 0.0805201 0  0.481795 0.126919 0  0.471875 0.1 0  0.489227 0.142159 0  0.515625 0.1 0  0.520062 0.147117 0  0.501244 0.161791 0  0.505431 0.112984 0  0.505344 0.14029 0  0.526563 0.119081 0  0.5181750000000001 0.131908 0  0.539868 0.136937 0  0.460937 0.108383 0  0.474242 0.114415 0  0.460937 0.0810483 0  0.487841 0.167168 0  0.526563 0.0612217 0  0.526563 0.106406 0  0.537619 0.112743 0  0.58125 0.1 0  0.559375 0.1 0  0.482812 0.08105569999999999 0  0.471883 0.0587655 0  0.570312 0.129396 0  0.548437 0.07598340000000001 0  0.504687 0.08105569999999999 0  0.49375 0.0470127 0  0.570312 0.112663 0  0.592798 0.12103 0  0.553986 0.12103 0  0.570312 0.0805201 0  0.48125 0 0  0.114787 0.2 0  0.160769 0.284765 0  0.175816 0.288361 0  0.162602 0.116048 0  0.154687 0.07598340000000001 0  0.176562 0.0805201 0  0.0598995 0.147547 0  0.307812 0.109924 0  0.291279 0.117157 0  0.278491 0.112989 0  0.285937 0.07598340000000001 0  0.307812 0.0805201 0  0.296928 0.196743 0  0.318141 0.218507 0  0.330208 0.227509 0  0.301397 0.225668 0  0.302706 0.241401 0  0.292574 0.21424 0  0.282762 0.230935 0  0.284351 0.244775 0  0.269553 0.23261 0  0.278572 0.217242 0  0.226924 0.342606 0  0.446928 0.185396 0  0.515625 0.3 0  0.504687 0.288879 0  0.515256 0.276534 0  0.529479 0.285328 0  0.58125 0.3 0  0.541969 0.272936 0  0.559375 0.3 0  0.556796 0.282529 0  0.543473 0.287206 0  0.581429 0.267774 0  0.566728 0.271171 0  0.570869 0.255585 0  0.577404 0.283865 0  0.603125 0.3 0  0.597531 0.28035 0  0.570312 0.338778 0  0.592188 0.292492 0  0.603513 0.256094 0  0.614063 0.286265 0  0.610329 0.27064 0  0.632708 0.251285 0  0.657223 0.261594 0  0.618789 0.257807 0  0.614188 0.22987 0  0.630935 0.265614 
[...]
<PointData  Vectors="v"> 
	<DataArray  type="Float64"  Name="v"  NumberOfComponents="3" format="ascii">
0.0 0.0 0.0 0.0 0.0 0.0 0.0 0.0 0.0 0.0 0.0 0.0 0.7920440909648534 -0.17499142729927833 0.0 0.8481557690249549 0.20593619287324877 0.0 0.7046967923677244 -0.04825264655763996 0.0 0.7079798344491296 -0.14065190910551112 0.0 0.0 0.0 0.0 0.0 0.0 0.0 0.0 0.0 0.0 0.0 0.0 0.0 0.0 0.0 0.0 0.0 0.0 0.0 0.0 0.0 0.0 0.0 0.0 0.0 0.0 0.0 0.0 0.0 0.0 0.0 0.0 0.0 0.0 0.0 0.0 0.0 0.0 0.0 0.0 0.0 0.0 0.0 0.0 0.0 0.0 0.0 0.0 0.0 0.0 0.0 0.0 0.0 0.0 0.0 0.0 0.0 0.0 0.0 0.0 0.0 0.0 0.0 0.0 0.0 0.0 0.0 0.0 0.0 0.0 0.0 0.0 0.0 0.0 0.0 0.0 0.0 0.0 0.0 0.0 0.0 0.0 0.0 0.0 0.0 0.0 0.0 0.0 0.0 0.0 0.0 0.0 0.0 0.0 0.0 0.0 0.0 0.0 0.0 0.0 0.7664642978369641 0.020109297827720883 0.0 1.255948910135113 0.17776325973344048 0.0 0.9059357730873826 -0.16219736074070837 0.0 0.0 0.0 0.0 1.2528910926535826 -0.02791691444710635 0.0 1.345783666482548 0.0199666547024311 0.0 0.0 0.0 0.0 0.0 0.0 0.0 1.0 0.0 0.0 0.0 0.0 0.0 0.0 0.0 0.0 0.0 0.0 0.0 0.8425616763740235 -0.2093070780906267 0.0 1.1387093599705087 -0.277195828048182 0.0 0.8760769184559473 0.24120443813398793 0.0 1.1934091217275702 0.29927287246676015 0.0 0.43389568130955225 0.0248862990328417 0.0 0.20266997095032888 0.025824293243126115 0.0 0.22081600982161054 0.004513823919219209 0.0 -0.06314429315230105 0.07074425731957436 0.0 -0.03267664763582335 0.21206981687161153 0.0 0.3339249796983679 -0.25030117767103344 0.0 0.8611794175741643 -0.6477001394206794 0.0 0.6395257577802592 -0.6673492862198768 0.0 1.233674160199413 -0.5837816487316507 0.0 0.3541850902956113 0.022481828931308213 0.0 0.34140657895656484 0.30343744520438426 0.0 0.6721731415724111 0.7037446890744672 0.0 1.2571340130410635 0.6155116183274035 0.0 0.33975117407279726 -0.0068437150333680394 0.0 1.308540447346037 0.15615844223148392 0.0 -0.014974339599894509 0.07205022460935097 0.0 1.2493477753318492 -0.13868233221068083 0.0 -0.0016184640668778394 -0.020648577975023605 0.0 -0.036577507619800685 0.1310967713921364 0.0 1.2351903862227995 -0.39004141795560615 0.0 1.117056613526747 -0.7123619331155788 0.0 0.8991761964258812 0.8065277453660034 0.0 1.2896362387129143 0.40912457947390063 0.0 0.9740385464488197 0.16737709789181618 0.0 -0.033451288981374304 0.12990679365877802 0.0 0.9514838300975375 -0.15348583361551438 0.0 -0.03394919868648579 -0.0034644381616145675 0.0 -0.028604527780339627 0.17655096684928118 0.0 1.0950232453173099 0.7518972542322057 0.0 0.4637336746207436 0.5665604678697191 0.0 0.5968041974372605 0.027719092627293444 0.0 0.15120616074538631 0.11397334515430066 0.0 0.5926882781003591 -0.019581120772520336 0.0 0.09293093768096469 0.04788705911247203 0.0 -0.11759996992923277 0.1989195379370972 0.0 0.9846550946920327 0.3025249909373621 0.0 1.2798290579262614 0.22191592897575566 0.0 1.3598552242750688 0.17930636209113454 0.0 1.2077044280945073 -0.21431573743794338 0.0 1.3001557267454278 -0.16385130368240033 0.0 1.3670382834367534 0.2392427017178225 0.0 1.3167392785207708 -0.220655865455232 0.0 0.43887658650860273 -0.5193807139781229 0.0 0.8034100571555132 -0.11665526926669473 0.0 0.6710252159558099 -0.38938360700450947 0.0 0.9139360065723808 0.6154850183319561 0.0 0.8091010902967393 0.1615111298700509 0.0 0.6992744303454709 0.44773762443547477 0.0 1.2340187543351921 -0.2544142168635079 0.0 0.2506968402568494 0.04508711709727112 0.0 0.2639963581768666 0.02598721877935883 0.0 -0.11289272405453948 0.1435213136233182 0.0 1.3413006523209114 0.4245931369353055 0.0 0.9849243291998472 0.052727175284161786 0.0 1.2881083076400155 -0.4110300831677561 0.0 0.9498694984935684 -0.030052470198873697 0.0 1.3803716170198546 0.3503931187448103 0.0 1.303812801090707 0.33464157470127953 0.0 1.3271542898669708 -0.33344980468606383 0.0 1.2494422516205297 -0.3009145362337453 0.0 0.5858104465713394 -0.13207858238346162 0.0 0.7969118239653559 -0.3054506552021996 0.0 1.0604118518047894 0.6145109619558548 0.0 0.602859565267834 0.17886857587741556 0.0 0.8309144825898281 0.3491912758788316 0.0 1.0537381959299585 0.010013669410642684 0.0 0.946820624577897 0.03993773032677957 0.0 -0.09287711073011605 0.09145654031637777 0.0 1.3363620725404473 0.08188397707264887 0.0 0.9230943323279946 -0.2854317364340487 0.0 1.258252406864952 -0.07508103380140142 0.0 0.5365946292553229 0.03481132538395704 0.0 0.5024824437701075 0.05428162193377736 0.0 -0.2043946076313128 0.16020088399884158 0.0 1.0828448457016393 0.32154054465441306 0.0 0.9699945854417005 0.3929159316459121 0.0 1.1618566277641762 0.04393051567411779 0.0 0.9767153990012057 -0.0040095288824880185 0.0 1.1861604482269683 0.03310447257624305 0.0 1.0194114418909215 -0.2961357783451133 0.0 1.0866833822596356 -0.5363822155326256 0.0 0.930796639995416 -0.35819076297435326 0.0 1.0011921377715993 -0.4030235549138889 0.0 0.93613401837869 -0.5141849476310312 0.0 0.8662678223515979 -0.378262781741477 0.0 1.365563212379365 0.11588667263104926 0.0 1.2939196743652188 -0.10262351161310765 0.0 0.8508751776556792 -0.21323791397703645 0.0 0.8774636550885124 -0.2830935323541738 0.0 0.8523825356021105 -0.2740520248030088 0.0 0.8448102103913907 -0.2285582645779088 0.0 0.8506885911937238 -0.22783218272170072 0.0 0.8932602337301514 -0.2893801114759574 0.0 1.349484689322086 0.19707476524033682 0.0 1.3154258254280031 -0.26515650861346657 0.0 1.3648229747345844 0.2685418020629974 0.0 1.2916609122293508 -0.17490360110159417 0.0 0.0 0.0 0.0 0.0 0.0 0.0 1.2992320848575891 -0.24627070400549195 0.0 0.7155753995619711 -0.24132871151399318 0.0 0.8206818668905407 -0.1883352548266231 0.0 0.8722726241423725 -0.0935121576337753 0.0 0.8629568351395045 -0.14465532866720607 0.0 0.9375 0.0 0.0 0.7500000000000001 0.0 0.0 0.7361208470811462 0.2883685614168597 0.0 0.8354865386406184 0.21577241606379702 0.0 0.7499999999999999 0.0 0.0 0.8772120330034174 0.14166976052177327 0.0 0.932049698071486 0.051362224160322476 0.0 0.853088248089467 0.06161763498592314 0.0 -0.15360899369846476 0.1412667674710338 0.0 -0.06211814512711493 0.12289151031449252 0.0 1.1686008441328986 0.548671712084207 0.0 1.0561482892481304 0.4709810755867135 0.0 0.8920027376075461 0.2500223950568882 0.0 1.3418649672765044 0.031604640157606514 0.0 1.3333107015024688 -0.11808779871639791 0.0 0.49739124894766523 0.05638239582450781 0.0 1.3515295213890017 -0.0485701487981497 0.0 1.0629185725817032 -0.02566105811121348 0.0 1.345743303139154 -0.014400673121951714 0.0 0.9762230005222954 -0.10907960964801997 0.0 0.8597604339242727 -0.030478354311930404 0.0 0.2612549008313796 0.1137085933593619 0.0 1.3113608056154424 -0.11496111412096287 0.0 0.5614456079287025 0.022566895087594744 0.0 0.589533753385456 -0.10700811892704203 0.0 0.6789957503445773 -0.05866984691074703 0.0 1.2079532225574097 -0.282101540737853 0.0 1.0328058733318866 -0.19129077835896469 0.0 1.3107541754202403 -0.19276435338245743 0.0 0.7185291833379774 0.01674439256931446 0.0 1.2545486317576464 -0.027437380178384062 0.0 0.056971364144758174 0.0901030801935748 0.0 1.1569353224437435 0.07141490924934817 0.0 0.8908877901401755 0.18649427024069737 0.0 0.6849618423225785 -0.1437637368711422 0.0 0.9918484590034551 -0.031414761663694904 0.0 0.9938781894050545 -0.1631902758408312 0.0 0.8629287084531758 -0.16373837900999014 0.0 0.8783700049715866 -0.009276009674729153 0.0 0.4721651385757408 0.0815399024409064 0.0 0.21249697277191212 0.10811753770906125 0.0 1.20602635282123 0.028772359764374894 0.0 0.0919194694361502 0.1062857123582822 0.0 1.2369062827728314 0.010864071844772508 0.0 0.06302454189979544 0.11964989785966325 0.0 0.5907040789739683 0.10248289530484872 0.0 -0.18759147802778164 0.11888379572753217 0.0 0.6673040333971175 0.09478855513931285 0.0 0.8956653985033648 0.305654398379747 0.0 0.9033100824032818 0.42299551909764754 0.0 0.8970182360132909 0.26412365231563345 0.0 0.9172117945156872 0.11819397436999882 0.0 0.8746894791809076 0.22357133314893493 0.0 0.9210968134965473 0.3049493533572868 0.0 0.8665659387905459 0.23055493746252276 0.0 0.8079601241673752 0.17856833772544267 0.0 0.8729333475508956 0.16392679819606817 0.0 0.0 0.0 0.0 0.8473500618024801 0.1768394763068468 0.0 0.8794355178261479 0.18248802865675984 0.0 1.0702669482504488 -0.07156644083251947 0.0 1.3663084004663313 -0.09181064531975885 0.0 1.2968458332342074 -0.18765620673649272 0.0 1.1100114249671458 -0.4265647291936325 0.0 1.2172787601342385 0.029236703582627616 0.0 0.7088270866696633 -0.15181257598072545 0.0 1.0847423160435015 -0.0817874245272703 0.0 1.0489637336469364 0.06405719127366015 0.0 1.1919672592349186 0.03421689452701033 0.0 0.6151547921550713 0.08276319464107648 0.0 1.1660773075474953 0.04411699035893631 0.0 1.000835127575561 0.049563185116888245 0.0 -0.20276136788572724 -0.04868741718894797 0.0 -0.16383394261082398 0.134997263329178 0.0 0.965288063450652 0.3354641588881408 0.0 1.2689852400414228 -0.32627809695125287 0.0 1.0412876496086692 -0.36104641238901813 0.0 0.0 0.0 0.0 1.1556655612869464 -0.13176144124075578 0.0 1.3549241871689206 -0.18444917519129717 0.0 1.2298221626995078 -0.01936398215036028 0.0 0.8488032058496542 -0.13785957479294775 0.0 0.3925028948044944 0.10385110754448644 0.0 1.1573290891283583 0.03318212632948464 0.0 1.2268273687068265 0.06416281819253139 0.0 -0.14241290742749343 0.05630994126171795 0.0 -0.24254462036188357 0.15947183220523065 0.0 -0.2636643775604555 0.09604432635479244 0.0 -0.12920873479168266 0.21600502812534636 0.0 1.1672148159403355 0.13478516206658142 0.0 0.7805820088652247 0.18480795246237308 0.0 0.7818033280502538 0.1518435821926807 0.0 0.7882056284661172 0.10669429581186207 0.0 0.6207544384755901 0.10672186300431391 0.0 0.9230635299757672 -0.2576872578372727 0.0 0.5645172951696932 -0.2752966134394205 0.0 0.9266086201464427 -0.47757620411259827 0.0 0.9590930914192577 -0.007927700291125385 0.0 0.0 0.0 0.0 0.5036227973819313 0.039044989070371613 0.0 0.9504218245357567 0.028337598211974242 0.0 -0.10073742304730923 -0.09832421309760664 0.0 1.0954691378056474 0.20471261263355706 0.0 0.904033727790271 0.11655609839702548 0.0 1.0596256328547444 -0.2715558296017823 0.0 0.06989921806725637 0.010232860165586074 0.0 0.362750167435618 -0.09144512497748836 0.0 0.03676106505140801 -0.08584076357590753 0.0 1.2041054472662833 0.041059835891872565 0.0 -0.20481245603926282 0.04703079063767797 0.0 -0.2749031954990569 0.010008413177877724 0.0 -0.24239511075166542 -0.13194721987253855 0.0 0.13129657313588886 -0.006622947935750672 0.0 0.15284515015592626 -0.3933145043695429 0.0 -0.04709953787211843 -0.24786012130174415 0.0 -0.1497951868334231 -0.3437148998818031 0.0 0.28217420537876525 -0.3128931528747598 0.0 -0.1035364888739793 -0.34308710951186794 0.0 0.6022407861684806 -0.4651552650714858 0.0 0.22847158085017955 -0.16408800093232456 0.0 0.07605995208719561 -0.5091219827596961 0.0 0.051463747030603364 -0.4567710574767592 0.0 0.4194656517494532 -0.50697774581272 0.0 0.0 0.0 0.0 0.9494758760596248 0.22500511801952194 0.0 0.9522239924733897 0.04319510753498325 0.0 0.8264839502470728 -0.4098889989615536 0.0 0.22992649826565298 0.0720236672099774 0.0 0.5459076215275466 -0.010323158461546814 0.0 0.9581174144931448 0.007737075508850623 0.0 1.14763252464417 0.028513128668854828 0.0 1.1510998980338751 -0.1784130437073055 0.0 0.00825883052478626 -0.20766407520789024 0.0 0.37261386257077844 -0.46824954171486766 0.0 0.3656615336664529 -0.456582815137194 0.0 0.6863387384480822 -0.504673740651731 0.0 0.6032684521349675 -0.476137126455558 0.0 0.8169869984366047 -0.4615135711012894 0.0 0.8070376994779379 -0.30024878440041053 0.0 1.020623716691412 -0.3492202805075875 0.0 0.7768014097625261 -0.3968390076041538 0.0 0.9688539961574327 -0.42839442150869944 0.0 0.9244155056782791 -0.36217936371042253 0.0 1.087349797940616 -0.40352746927255195 0.0 0.6180626987702119 -0.36492492101176943 0.0 0.9742396040966834 -0.231551584631462 0.0 1.0798402267647411 -0.3291724987737686 0.0 1.1576368445883587 -0.2801266539175704 0.0 1.1530752570171432 -0.35000389043554714 0.0 0.20662419194590945 -0.4622247390130751 0.0 0.9551190345538345 -0.26788469995476794 0.0 1.2313987505465311 -0.3366070575866441 0.0 1.0399175511570342 0.04800133993415424 0.0 0.21144336916939616 -0.359843012924609 0.0 0.6915756173636923 -0.27328044441462446 0.0 0.799026297487794 0.11638323379347733 0.0 0.4059966909315878 -0.38688020690899294 0.0 0.08611931380445433 -0.5145101543090993 0.0 0.8550443182643053 -0.07807618768342298 0.0 0.2589707685681292 -0.24785996129433507 0.0 0.13318136288804772 -0.48219674639475857 0.0 0.3717067273609976 -0.25419026122546284 0.0 0.2466866991025322 -0.37178709705008756 0.0 0.2534376028980898 -0.2730655176987633 0.0 0.47936962674924954 -0.22431804827167112 0.0 0.33323002691545495 -0.1122776648655853 0.0 1.0077783458263803 0.5143029746606559 0.0 0.3688172630183109 -0.22551488592256777 0.0 0.48187315967058825 0.09645157198038047 0.0 0.43862501036353085 -0.05965185834142917 0.0 0.6032795626904296 -0.056224965689227004 0.0 0.6887302236542353 0.022693678780236436 0.0 0.8034644610572178 -0.01380941505482455 0.0 0.31899322728854457 -0.08775571281359887 0.0 0.8522606869975454 -0.47465792688245045 0.0 1.1962432838768928 -0.3839866567493919 0.0 0.24515528967428105 -0.026578106612480362 0.0 1.1664015049817469 0.03551361176211818 0.0 1.0280638147830399 0.01998592845911047 0.0 0.7676535710087395 -0.08430072052842914 0.0 -0.20600544719439923 -0.21838798060826636 0.0 0.31085095913582805 -0.5172629259194353 0.0 0.11233057057674709 -0.5356461189332865 0.0 0.059301970924889764 -0.4170730704033536 0.0 0.21790013289090476 -0.5180148427606863 0.0 0.5235906867360208 -0.284553300329214 0.0 0.8296082170304271 0.006560842319507303 0.0 0.6881295323286825 -0.1789131900303038 0.0 0.6796104615500609 -0.040964800974596545 0.0 0.6932302996231602 0.141181218671475 0.0 0.3586197378838122 -0.008964950855382943 0.0 0.6390223093207583 0.35941272465558666 0.0 0.43028092556169223 0.15095426582048593 0.0 0.5169874374400468 0.20890216079291515 0.0 1.0097334328959502 0.2934727888205725 0.0 0.7100075992892381 0.36644191277295896 0.0 0.906438568038674 0.5157935539327375 0.0 0.7961159274403642 0.46982858342276335 0.0 0.7490079349350719 0.44775701014076397 0.0 0.47003304739143403 -0.15370850543593437 0.0 0.6280823121942737 -0.12250866353532983 0.0 0.41656532231090804 -0.14606841117705474 0.0 0.8111942946098462 -0.199221492557748 0.0 0.3093187947085845 -0.23406184058832863 0.0 0.4641007015294735 0.024689512367425462 0.0 0.8279643550652142 -0.04767255857328274 0.0 0.8448096242954465 -0.12197204933122766 0.0 0.8924353332918163 -0.19598860033521887 0.0 0.3875824286599108 -0.05329993952438934 0.0 0.388934422422365 0.06622305601811272 0.0 0.543321839063042 0.2874374589222549 0.0 0.4624624231558401 0.20054621832570177 0.0 0.5517614118685699 0.3015412914624877 0.0 0.45917310575112613 0.14385758013152206 0.0 0.2970337407722493 -0.164788498577666 0.0 0.6965237817964036 -0.05428824820778263 0.0 0.07275162056710256 -0.29902607067802356 0.0 0.37059216167175335 -0.23623689344812618 0.0 -0.06916990480465389 -0.41888547167518436 0.0 1.1405024684478378 0.02426629087915238 0.0 1.0135718004663348 0.06520451477302078 0.0 1.0973720300106573 -0.20574291325988778 0.0 0.8723852240674351 -0.12851660082748836 0.0 0.6318611888639375 0.3768164612999582 0.0 0.6854537637395809 0.3709459002959986 0.0 0.8249772199797083 -0.040695752380755464 0.0 0.40822110299231384 -0.23729263006276624 0.0 1.112303327416171 0.03407907795124729 0.0 1.0213876840719636 -0.20933735556837807 0.0 1.1327146428672163 0.49362071390747697 0.0 0.8455934460386471 -0.07969266119546857 0.0 0.7696883167947788 -0.0580011889455035 0.0 1.249838162721454 0.11457660635284075 0.0 0.6803370969317564 -0.10076263872713304 0.0 1.0576710707527799 0.0867972421970913 0.0 1.1445701890302875 0.04289520450121229 0.0 0.9074088028767745 -0.14938271640703207 0.0 0.8217334845104796 -0.01781540968180246 0.0 1.0349356930393765 0.03442140835445637 0.0 1.2320439217649388 0.13685092276857447 0.0 1.2072306102036054 0.0864963038042569 0.0 1.1800791235521693 0.2921244695213626 0.0 1.2646753605623933 0.3207981288917027 0.0 1.2415614704453264 0.18888153083597736 0.0 1.1457268131107594 0.20187825648136712 0.0 0.8127364596094246 0.060758504330951736 0.0 0.0 0.0 0.0 1.1246562745224216 0.09841767601919121 0.0 1.267514173372941 0.3629380503058737 0.0 0.9389004163712662 0.13870014993924507 0.0 1.1484537877632996 0.14525234896351952 0.0 1.2645909928231813 0.301844939658505 0.0 1.2349730562743229 0.2416881056804359 0.0 1.1747205258995246 0.30454252602432713 0.0 1.1020908867402084 0.3106380919171736 0.0 1.1913375707991145 0.4612667441057331 0.0 1.010363133689196 0.3080377279954059 0.0 1.2117053474269004 0.35516932187491373 0.0 1.2242055725011711 0.40472853548210946 0.0 1.1612008609977533 0.38840896537719727 0.0 1.2233849113415 0.4310794378412756 0.0 1.15051036940006 0.45171593574098423 0.0 1.2800362254942101 0.22074889720795118 0.0 1.282111783523588 0.26999273791534034 0.0 1.1210567303418841 0.18998060161691627 0.0 0.8409935312006744 0.13575518913068865 0.0 0.6760210935780295 0.14559812710439923 0.0 1.0974986750623315 0.3369272133490784 0.0 1.0815885607292557 0.3507893042161276 0.0 0.8261818041023787 0.17432890980545554 0.0 0.9151720164968581 0.24708681763502585 0.0 1.0663442064870896 0.22400826000379065 0.0 0.8750206853387609 0.13715434342118096 0.0 1.003791885759859 0.3372110436513301 0.0 0.7568810714797566 0.17438101759104077 0.0 0.9958751174062678 0.2351104174499346 0.0 0.6157480503857621 0.10264676271423431 0.0 0.9387681517120048 0.2643912685896086 0.0 0.8822072609362501 0.2132283824176689 0.0 1.0486652571961381 0.3527733634852734 0.0 0.7223665337200067 0.13896221142979637 0.0 0.0 0.0 0.0 0.6505763668587935 0.01920198024432324 0.0 1.115030771511672 0.4147525059489083 0.0 1.2116038855850308 0.3841890032325198 0.0 1.0856686366773751 -0.3806761372873739 0.0 0.8453570813105564 -0.19076221821181868 0.0 0.9533184678025283 -0.20501475847746384 0.0 0.8923745736992592 -0.07318622057882118 0.0 1.1929997620659578 0.03855640473996361 0.0 1.147726067606836 0.03913083446601958 0.0 1.226350265225296 0.005122331124485542 0.0 1.1112661358567906 -0.006234006898996372 0.0 1.1409332838885742 0.014086558775645497 0.0 -0.1803823969673824 0.1915440611145102 0.0 0.002018326343870068 0.16716466819637274 0.0 0.18905018286391395 0.06809623532084011 0.0 0.060606850026566024 0.20353829881596158 0.0 0.2882017322538097 0.12977653294376895 0.0 -0.06665845066111654 0.22604384234309335 0.0 0.06477849011704952 0.21202300833169938 0.0 0.23409258294300359 0.13395497653447536 0.0 0.022449533456605626 0.19653406127448506 0.0 -0.0429093780073841 0.22969327491338887 0.0 0.9866440862867659 0.09112902595355331 0.0 0.16204572619078014 -0.41465401758418385 0.0 0.8154254034924562 0.0738898829543275 0.0 0.7741992423572744 0.029432981894149335 0.0 0.6194198473409275 0.005421101389665828 0.0 0.6681593914032483 0.07410818640483242 0.0 0.8374343799808379 0.14025342323678425 0.0 0.49185857687592194 0.08267750065487722 0.0 0.8030211086597122 0.13627615168733584 0.0 0.5889705515797814 0.1370945852802709 0.0 0.6578840405067248 0.10634893878408894 0.0 0.5668197979334954 0.24631919803590663 0.0 0.5213554930122306 0.19157491076770422 0.0 0.5502907743156841 0.2686807876355599 0.0 0.6346942495043639 0.18435012711204488 0.0 0.9242540161128253 0.11789085811434756 0.0 0.6799257776427592 0.22155992354161147 0.0 0.8508253716239654 0.06312706896945072 0.0 0.7888842453243982 0.16531127949945276 0.0 0.6758091762660953 0.31981422747805616 0.0 0.8347490052413702 0.1733138832778834 0.0 0.6864028767065257 0.2712831714292792 0.0 0.7619571027031783 0.3389837210138725 0.0 0.9601229411655885 0.14481097969702023 0.0 0.7134886503256419 0.32077032885642454 0.0 0.8039160048847903 0.3680644129715287 0.0 0.7790787205144462 0.2712112010693514 0.0 0.7601627572798266 0.35057751986825797 0.0 1.201515503351146 -0.18188627957167722 0.0 0.8136822990622542 0.36583614699005723 0.0 1.0859289537826464 -0.27383936568273165 0.0 0.9336580828923464 0.13176884824927815 0.0 0.9593872600679152 0.12962192505662867