<?xml version="1.0"?>
<VTKFile type="UnstructuredGrid"  version="0.1"  >
<UnstructuredGrid>
<Piece  NumberOfPoints="1289" NumberOfCells="2413">
<Points>
<DataArray  type="Float64"  NumberOfComponents="3"  format="ascii">0 0 0  0 0.41 0  2.2 0.41 0  2.2 0 0  0.1 0.1 0  0.1 0.3 0  0.8 0.3 0  0.8 0.1 0  0.25 0.2 0  0.248976 0.210065 0  0.245948 0.219718 0  0.241038 0.228563 0  0.234448 0.23624 0  0.226448 0.242432 0  0.217365 0.246888 0  0.207571 0.249423 0  0.197468 0.249936 0  0.187467 0.248404 0  0.17798 0.24489 0  0.169395 0.239539 0  0.162062 0.232569 0  0.156283 0.224265 0  0.152293 0.214968 0  0.150257 0.205058 0  0.150257 0.194942 0  0.152293 0.185032 0  0.156283 0.175735 0  0.162062 0.167431 0  0.169395 0.160461 0  0.17798 0.15511 0  0.187467 0.151596 0  0.197468 0.150064 0  0.207571 0.150577 0  0.217365 0.153112 0  0.226448 0.157568 0  0.234448 0.16376 0  0.241038 0.171437 0  0.245948 0.180282 0  0.248976 0.189935 0  1.1 0 0  1.1 0.41 0  0.1 0.2 0  0.45 0.1 0  0.45 0.3 0  0.55 0 0  0.275 0.1 0  0.275 0.3 0  0.275 0 0  0.55 0.41 0  0 0.205 0  0.825 0 0  0.825 0.41 0  0.275 0.41 0  0.1 0.15 0  0.1875 0.1 0  0.1 0.25 0  0.1875 0.3 0  0.132322 0.2 0  0.241426 0.253518 0  0.241426 0.146482 0  0.264574 0.17974 0  0.264574 0.22026 0  0.138434 0.187348 0  0.153372 0.150948 0  0.148413 0.164094 0  0.176495 0.136535 0  0.22768 0.143571 0  0.138434 0.212652 0  0.148413 0.235906 0  0.176495 0.263465 0  0.22768 0.256429 0  0.23125 0.3 0  0.24769 0.24094 0  0.23125 0.1 0  0.24769 0.15906 0  0.26253 0.193641 0  0.190482 0.137872 0  0.166753 0.146661 0  0.157737 0.244461 0  0.190482 0.262128 0  0.203107 0.261264 0  0.253635 0.22977 0  0.203107 0.138736 0  0.253635 0.17023 0  0.261028 0.206206 0  0.167707 0.251809 0  0.143629 0.224191 0  0.215302 0.2591 0  0.270465 0.245894 0  0.215302 0.1409 0  0.270465 0.154106 0  0.284052 0.202587 0  0.14375 0.3 0  0.209375 0.3 0  0.225966 0.278501 0  0.209375 0.1 0  0.225966 0.121499 0  0.211613 0.273759 0  0.211613 0.126241 0  0.143629 0.175809 0  0.1 0.175 0  0.133484 0.164832 0  0.144491 0.249539 0  0.1 0.225 0  0.133484 0.235168 0  0.3625 0.3 0  0.25691 0.253381 0  0.25691 0.146619 0  0.277205 0.188698 0  0.184724 0.275712 0  0.237372 0.268285 0  0.184724 0.124288 0  0.237372 0.131715 0  0.197578 0.273149 0  0.193656 0.286994 0  0.197578 0.126851 0  0.193656 0.113006 0  0.122953 0.187671 0  0.118362 0.153758 0  0.155372 0.258107 0  0.122953 0.212329 0  0.118362 0.246242 0  0.276394 0.27264 0  0.276394 0.12736 0  0.280965 0.170013 0  0.253125 0.3 0  0.14375 0.1 0  0.253125 0.1 0  0.269489 0.26014 0  0.269489 0.13986 0  0.303639 0.184297 0  0.165625 0.3 0  0.134742 0.273113 0  0.257831 0.274737 0  0.255279 0.128499 0  0.3625 0.1 0  0.165625 0.1 0  0.162031 0.132368 0  0.134955 0.126405 0  0.149334 0.125568 0  0.142936 0.139597 0  0.12695 0.140259 0  0.242514 0.285501 0  0.242514 0.114499 0  0.1 0.125 0  0.117483 0.12555 0  0.11154 0.139776 0  0.121875 0.1 0  0.109143 0.1125 0  0.126805 0.114 0  0.220313 0.29129 0  0.351562 0.287369 0  0.207222 0.2866 0  0.220312 0.10871 0  0.1375 0 0  0.20625 0 0  0.207222 0.1134 0  0.11722 0.17118 0  0.1 0.1625 0  0.0778409 0.16875 0  0.0862762 0.15625 0  0 0.15375 0  0 0.1025 0  0.11722 0.22882 0  0.1 0.2375 0  0 0.3075 0  0.0862762 0.23125 0  0.0598995 0.222547 0  0.0860223 0.2125 0  0.289584 0.181469 0  0.300267 0.16446 0  0.163832 0.269071 0  0.149597 0.273325 0  0.1 0.275 0  0.268498 0.285953 0  0.31875 0.3 0  0.294154 0.254672 0  0.296875 0.3 0  0.293558 0.271845 0  0.285095 0.286799 0  0.324298 0.264316 0  0.307866 0.263745 0  0.317093 0.234901 0  0.315485 0.281219 0  0.316547 0.250625 0  0.344693 0.243731 0  0.331592 0.251147 0  0.35129 0.270663 0  0.338689 0.263683 0  0.340625 0.3 0  0.249849 0.264383 0  0.265097 0.11422 0  0.284688 0.156136 0  0.242188 0.324017 0  0.0856613 0.2625 0  0.132812 0.0612217 0  0.264062 0.0612217 0  0.198437 0.07598340000000001 0  0.0860223 0.1375 0  0.0794526 0.191089 0  0.285228 0.140397 0  0.298655 0.148737 0  0.31875 0.1 0  0.327335 0.15374 0  0.296875 0.1 0  0.312289 0.155283 0  0.313348 0.135607 0  0.321802 0.173916 0  0.298433 0.134116 0  0.112124 0.2625 0  0.127526 0.259083 0  0.121875 0.3 0  0.0682687 0.241503 0  0.1 0.2875 0  0.117762 0.28125 0  0.107813 0.3 0  0.103906 0.313849 0  0.0778409 0.28125 0  0.1375 0.41 0  0.0862762 0.29375 0  0.08886860000000001 0.24375 0  0.307812 0.338778 0  0.307812 0.292227 0  0.33216 0.279164 0  0.387888 0.266414 0  0.264063 0.31948 0  0.110937 0.07598340000000001 0  0.242188 0.07598340000000001 0  0.319914 0.11839 0  0.340625 0.1 0  0.334448 0.133793 0  0.329687 0.108539 0  0.346259 0.118491 0  0.360334 0.173636 0  0.327539 0.205033 0  0.132812 0.288712 0  0.362436 0.278836 0  0.368105 0.259418 0  0.4125 0.41 0  0.329687 0.324017 0  0.329687 0.292306 0  0.285938 0.318952 0  0.417187 0.338778 0  0.324481 0.14148 0  0.351562 0.106771 0  0.40625 0.1 0  0.341028 0.168342 0  0.319221 0.190479 0  0.335292 0.184501 0  0.305563 0.20794 0  0.220313 0.31948 0  0.132812 0.332772 0  0.0865876 0.311259 0  0.0598995 0.302453 0  0.0906541 0.343255 0  0.353543 0.255837 0  0.36574 0.237633 0  0.405007 0.254279 0  0.275795 0.352123 0  0.4125 0 0  0.35493 0.137394 0  0.366563 0.120618 0  0.35917 0.205246 0  0.198438 0.318952 0  0.0626109 0.263892 0  0.40625 0.3 0  0.354809 0.155936 0  0.386512 0.146872 0  0.373101 0.159939 0  0.384375 0.1 0  0.343394 0.19929 0  0.350682 0.185683 0  0.368101 0.189748 0  0.344016 0.221511 0  0.391108 0.213329 0  0.376279 0.204783 0  0.398843 0.182768 0  0.375804 0.222746 0  0.390665 0.196958 0  0.394004 0.23518 0  0.359883 0.222828 0  0.419908 0.204359 0  0.404243 0.204783 0  0.412615 0.224526 0  0.20625 0.41 0  0.165625 0.325257 0  0.0347982 0.244954 0  0.379558 0.247154 0  0.34165 0.147603 0  0.372264 0.136992 0  0.388988 0.121989 0  0.373437 0.108554 0  0.351562 0.31948 0  0.391367 0.16527 0  0.399572 0.223324 0  0.452011 0.227371 0  0.40877 0.239392 0  0.431491 0.237337 0  0.421224 0.250459 0  0.449619 0.262098 0  0.418865 0.276779 0  0.437063 0.252274 0  0.415673 0.263227 0  0.430988 0.266772 0  0.402767 0.273419 0  0.452967 0.244883 0  0.428125 0.3 0  0.408502 0.286186 0  0.384375 0.3 0  0.392267 0.285807 0  0.465927 0.219339 0  0.43489 0.283846 0  0.376424 0.286289 0  0.625 0.3 0  0.473533 0.205186 0  0.461713 0.255517 0  0.5375 0.3 0  0.465725 0.235405 0  0.44631 0.201425 0  0.471875 0.3 0  0.494307 0.227729 0  0.459448 0.206736 0  0.462294 0.180792 0  0.478933 0.227536 0  0.486793 0.21381 0  0.486322 0.251373 0  0.50065 0.215318 0  0.54005 0.175389 0  0.474633 0.189893 0  0.512916 0.208697 0  0.49531 0.199967 0  0.475889 0.175275 0  0.625 0.1 0  0.459311 0.153933 0  0.513645 0.242704 0  0.392892 0.248539 0  0.374815 0.271913 0  0.365974 0.14871 0  0.395312 0.109184 0  0.417061 0.123981 0  0.483196 0.277003 0  0.381967 0.179632 0  0.429898 0.219374 0  0.433473 0.206165 0  0.43149 0.181038 0  0.444208 0.215487 0  0.472985 0.247309 0  0.49375 0.3 0  0.475579 0.262714 0  0.49916 0.274293 0  0.501175 0.184809 0  0.514164 0.225681 0  0.543648 0.214977 0  0.5341630000000001 0.23481 0  0.527396 0.216171 0  0.5375 0.1 0  0.534548 0.202315 0  0.561545 0.192513 0  0.5494289999999999 0.201221 0  0.570923 0.218346 0  0.412582 0.149833 0  0.489327 0.264745 0  0.502439 0.254775 0  0.462391 0.271166 0  0.496775 0.241732 0  0.5294410000000001 0.268606 0  0.482812 0.291099 0  0.46879 0.285038 0  0.452663 0.284065 0  0.51789 0.257882 0  0.53408 0.252026 0  0.560142 0.243543 0  0.545708 0.243474 0  0.547532 0.229019 0  0.55282 0.265323 0  0.398971 0.153424 0  0.400349 0.135684 0  0.410135 0.168145 0  0.428823 0.161323 0  0.415266 0.183779 0  0.329687 0.0810483 0  0.395312 0.0612217 0  0.373437 0.318952 0  0.439062 0.324017 0  0.561816 0.229354 0  0.585029 0.239287 0  0.431827 0.139854 0  0.446796 0.168929 0  0.351562 0.07598340000000001 0  0.395313 0.318944 0  0.54337 0.150762 0  0.460937 0.31948 0  0.418412 0.137529 0  0.428125 0.1 0  0.442783 0.152332 0  0.450742 0.134294 0  0.373437 0.0805201 0  0.384383 0.342558 0  0.482812 0.318952 0  0.429239 0.127457 0  0.444274 0.117405 0  0.426548 0.113815 0  0.49375 0.1 0  0.488954 0.113984 0  0.457973 0.121842 0  0.471621 0.137346 0  0.515625 0.325257 0  0.48125 0.41 0  0.417187 0.07598340000000001 0  0.496363 0.126778 0  0.479043 0.155715 0  0.439062 0.0805201 0  0.481795 0.126919 0  0.471875 0.1 0  0.489227 0.142159 0  0.515625 0.1 0  0.520062 0.147117 0  0.501244 0.161791 0  0.505431 0.112984 0  0.505344 0.14029 0  0.526563 0.119081 0  0.5181750000000001 0.131908 0  0.539868 0.136937 0  0.460937 0.108383 0  0.474242 0.114415 0  0.460937 0.0810483 0  0.487841 0.167168 0  0.526563 0.0612217 0  0.526563 0.106406 0  0.537619 0.112743 0  0.58125 0.1 0  0.559375 0.1 0  0.482812 0.08105569999999999 0  0.471883 0.0587655 0  0.570312 0.129396 0  0.548437 0.07598340000000001 0  0.504687 0.08105569999999999 0  0.49375 0.0470127 0  0.570312 0.112663 0  0.592798 0.12103 0  0.553986 0.12103 0  0.570312 0.0805201 0  0.48125 0 0  0.114787 0.2 0  0.160769 0.284765 0  0.175816 0.288361 0  0.162602 0.116048 0  0.154687 0.07598340000000001 0  0.176562 0.0805201 0  0.0598995 0.147547 0  0.307812 0.109924 0  0.291279 0.117157 0  0.278491 0.112989 0  0.285937 0.07598340000000001 0  0.307812 0.0805201 0  0.296928 0.196743 0  0.318141 0.218507 0  0.330208 0.227509 0  0.301397 0.225668 0  0.302706 0.241401 0  0.292574 0.21424 0  0.282762 0.230935 0  0.284351 0.244775 0  0.269553 0.23261 0  0.278572 0.217242 0  0.226924 0.342606 0  0.446928 0.185396 0  0.515625 0.3 0  0.504687 0.288879 0  0.515256 0.276534 0  0.529479 0.285328 0  0.58125 0.3 0  0.541969 0.272936 0  0.559375 0.3 0  0.556796 0.282529 0  0.543473 0.287206 0  0.581429 0.267774 0  0.566728 0.271171 0  0.570869 0.255585 0  0.577404 0.283865 0  0.603125 0.3 0  0.597531 0.28035 0  0.570312 0.338778 0  0.592188 0.292492 0  0.603513 0.256094 0  0.614063 0.286265 0  0.610329 0.27064 0  0.632708 0.251285 0  0.657223 0.261594 0  0.618789 0.257807 0  0.614188 0.22987 0  0.630935 0.265614 
[...]
<PointData  Scalars="p"> 
	<DataArray  type="Float64"  Name="p"  format="ascii">
0.0007015377877917614 0.0006755311795301741 -1.5796132180766237e-07 -7.49071334368003e-08 0.0007607123828495027 0.0007532749889159699 5.706316918959307e-05 5.569364917938097e-05 -0.0002651823291920581 -0.00027971448488197005 -0.0003353445625845763 -0.00034243735743591037 -0.0003333685892744014 -0.0004067956481699718 -0.00034916199917562485 -0.0001295323633276486 -0.0002920689161464647 -0.0004742125767268548 -0.0003182363209779516 1.3626905985688468e-05 0.0005184860903339429 0.0011606494395895637 0.0016816336844622103 0.0020101529151033723 0.002004786548469684 0.001663830728992896 0.001145267505223907 0.0005049974321022099 -9.036138362601841e-05 -0.00032800843153411033 -0.0004435076396253074 -0.00029912006227153206 -0.00012743762085605867 -0.0003465454386538442 -0.00040369603861515566 -0.00032705368025303375 -0.0003378941875729676 -0.00033426725111162473 -0.00028058161175099374 8.641332962167506e-05 8.362549621905008e-05 0.0014017935850935237 -0.00014735611508991936 -0.0001505376490577316 -7.307183195402597e-05 -7.924786687988322e-05 -8.517578610980622e-05 0.00017300109814208308 -5.75264853608578e-05 0.0009980561485034248 3.877168668736285e-05 3.934446313120392e-05 0.0001964176627829152 0.0010709399100171362 0.0002705230504137668 0.001070732128381263 0.00028144612044571663 0.0018204789251669556 -0.00022375480165809822 -0.00022285014439619836 -0.000284288805465457 -0.00028679933015965007 0.001770605366536743 0.0006041558286310018 0.0009993075426060194 1.580098001488445e-06 -0.0003483681393270869 0.00178421448659316 0.0010082513383394603 1.8933841165989124e-05 -0.0003479766105817228 4.511626899208e-05 -0.00019787380480055966 4.3274130704488864e-05 -0.00020014761403816314 -0.00028087650853696655 -0.00019408107667098182 0.00012260182584780313 0.0005042946189016787 -0.00020291527757536107 -0.00017387818009906566 -0.00031527210055781876 -0.00017585475022393183 -0.0003159982437200628 -0.00028084665266238075 9.613162290362964e-05 0.0014408730279935735 -0.0001624817078379171 -0.000272485365724164 -0.00016105257076199817 -0.00027140603336777303 -0.00027362559290427325 0.0005944090272148772 0.00012452119881087054 -0.0001773907123865094 0.00015328521417470235 -0.00016763555825528409 -0.00011421895995284684 -0.00011450807503617703 0.0014262930067878803 0.001280365693393908 0.0012795380631722944 0.000822212761638514 0.001300689010917398 0.0013025474707381859 -0.000167778300289546 -0.00023807174950317225 -0.0002413059633977418 -0.00027790738924662824 8.748360987365254e-05 -0.000205958323048223 7.967931264603572e-05 -0.00021250659939948025 -3.9606184545214335e-05 0.00014077223785226122 -2.628543522704658e-05 0.00014515295051595794 0.001607183317349219 0.0011333677408444523 0.0005495801862154221 0.0016058284021013296 0.0011392805313237301 -0.00021554830588339915 -0.00022483079949727497 -0.00027552136169478245 -5.649015218858348e-05 0.0005933590278323107 -3.78785558469739e-05 -0.00023204451073015052 -0.00023698021872235384 -0.0002664660104192167 0.0004440073154356048 0.0007766907109813874 -0.00022892792998480618 -0.00021739867209971534 -0.00016834025741630656 0.0004651410324020003 0.0004074365349577863 0.0007556442053451056 0.0006131830374097102 0.0007020386225966488 0.0009097153373907857 -0.00010152802291140286 -9.181404465603927e-05 0.0008796356841976269 0.0008457173791353445 0.0009696723721025272 0.0007039729677116735 0.000791413707293129 0.0007424239779900411 -1.7483542144256002e-06 -0.00020241213161887906 2.6951669913210686e-05 -1.119657653652842e-08 0.0006157961701418665 0.0004058604443185976 4.677130080887748e-05 0.0013443803768661846 0.0011730963746573262 0.0011345101861505566 0.0010801327781789544 0.0009317497269166927 0.0007898669731631069 0.0013468978510489348 0.0011944976184070537 0.0007586866023886147 0.0011548683808798603 0.001089946216379329 0.0012505114381917036 -0.0002724529544739883 -0.00026783260957914 0.0003550973063266797 0.0005895832255231659 0.0008792377683006552 -0.00017057983422259646 -0.0001440840212214702 -0.00027335108703376666 -0.00013852632232610315 -0.00025173934012643256 -0.00018841265228181238 -0.0002537482905950626 -0.00024938451201586613 -0.00026098981472103976 -0.00021959165812212263 -0.00025487915247912656 -0.000249280587303437 -0.0002537789370791844 -0.0002359681219043742 -0.00024335045439428132 -0.00017686814249912958 -0.000225478940480441 -0.00018911093490577916 -0.00026783475272025917 0.00014415639416986094 0.0009720124400847182 0.0006108918229341256 0.00013684140100168456 0.00034568595754549665 0.0009523472247657003 0.0012125598906920078 -0.0002614902934295014 -0.00026439791859177137 -0.00014205617800065024 -0.00025763335807463185 -0.00014580989601052597 -0.000263284779026121 -0.0002553786621096064 -0.000259483348929677 -0.0002576812599450261 0.0009576742721948621 0.0009153955279856515 0.0007008495362800707 0.0010407281460682422 0.0008194706028279539 0.0008014621681216847 0.0007322954356093446 0.0006985401668656752 0.0008487776276550343 0.0005879763525440743 0.0007955000680543962 0.0010987706378217882 2.0739000219722426e-05 -0.00018319234502282047 -0.00023030209187952164 -0.00022404461367977078 4.827804980796747e-05 0.000684781945363869 0.00015097043993128576 -0.00023084106882284588 -0.00017462888441615682 -0.000245474216269314 -0.00019594672566788042 -0.00022435460971202147 -0.00024320859692028126 -0.0002561179858229846 0.0006831300983495164 -0.0002252922563088334 -0.00023534880012838734 -5.326716737027877e-05 -6.147733705997143e-05 -0.0002005831724923909 -1.6265298742116922e-05 -9.738828513550041e-05 -0.0002541841448102197 -0.00018868780165942083 -0.00016484940621416678 -0.000252294558919307 -0.00025992687964266096 -0.000253530135292965 -0.0002653402739444219 0.0001859177349438497 0.0006051881411018943 0.0007344670163884845 0.0007741277997187989 0.0006618862332940688 -0.0002442445097209728 -0.00023988699640212148 -0.00021772478476818084 0.00014649521078284274 -7.966943364331554e-05 -0.0002422715518975207 -0.0002187324927130674 -0.00024208069820923296 0.0003188795608121004 0.0009261928056374462 -0.00016631762422157328 -0.0002463342176691852 -0.00022891819733935446 -0.00023729576363269858 -0.00017079347000461883 -0.00024943404064683966 -0.0002467545394387253 -0.00023824263896152638 -0.0002491510079666287 -0.00022567280844096175 -0.00023357905557785255 -0.00022105871818434817 -0.00023450752577026238 -0.00022556215547083085 -0.0002253823292083108 -0.00024217958764664608 -0.00020657485808966926 -0.00021720969872472055 -0.00021334038983224986 0.0004172948699443165 0.0004705737089411204 0.0009531253665951382 -0.00023324241783748902 -0.0002510487842070535 -0.0002321253064390894 -0.00021043322801928596 -0.00019647432083744502 -0.00010320258425846471 -0.0002266540310313823 -0.00022140596976429728 -0.00018416103157138633 -0.00021689934743377706 -0.00020143294043244378 -0.00020838792402451192 -0.00018505906093660697 -0.00019713167988711592 -0.00019657754325902872 -0.00020848268533387915 -0.00019676397996807438 -0.0002104337852073492 -0.00018442480419735208 -0.00016069003787343714 -0.0001928751614737611 -0.00017688186820823527 -0.00019912941876631726 -0.0001706728780992174 -0.00018109516427240163 -0.0002070348137933284 -1.7706322536813345e-05 -0.00016199768928761222 -0.00017526195639968716 -8.450011324918883e-05 -0.00017269443596370292 -0.00018596268153955558 -0.00013626738501713558 -0.00014376389715656625 -0.00017485596801727446 -0.00017145615239587346 -0.00015957210781235352 -0.0001498659086590646 -0.00015277408273144737 -0.0001357977654433527 -9.41043050683321e-05 -0.0001600163355617086 -0.0001221809279194166 -0.000140038878016632 -0.0001589012827490563 -2.1323289241168155e-05 -0.00017353574526269807 -0.0001237142660593216 -0.00022554706355886055 -0.00022210645751285948 -0.00023951405849573023 -0.00018666971211967867 -0.0001961053306649713 -0.00014673347204117835 -0.00023151008845863501 -0.00020078938848217575 -0.00019656685056832247 -0.00019775660912979532 -0.00018912919678439733 -0.00016628375338492463 -0.00011812356476974245 -0.0001608652754922738 -0.00013359127632941656 -0.00013383252859781929 -0.0001223518868070361 -8.90110146274666e-05 -0.00010054439983444645 -0.00010704822462419129 -8.56505065172195e-05 -9.867753839687375e-05 -7.010383798987056e-05 -8.266657697828344e-05 -5.943642135834061e-05 -0.00021128938261007332 -0.0001467064321578158 -0.0001351846978341617 -0.0001700659170475244 -0.0001421998985590658 -0.00010359468002269181 -0.00013646740293257097 -0.00015391129143050127 -0.00016730212146624663 -0.00011806849537736266 -0.00010025373214703478 -7.147062556403455e-05 -8.775097876308778e-05 -8.526515069742479e-05 -7.844173824452744e-05 -0.0002210472996336229 -0.0002161729398613706 -0.00021440857579687144 -0.00020023742117308274 -0.00020990532260147684 -9.51817748438731e-05 -9.068544609871553e-05 -0.00012447282847263735 -0.00011700167225260363 -6.947417169252343e-05 -4.478799821800444e-05 -0.00019413579956357145 -0.00018532258053178532 -9.19814270242723e-05 -0.00012284443946973815 -9.138873746294748e-05 -0.00011819493054502974 -0.0002021522087680771 -0.0001590701384004684 -0.00018775820543751292 -0.00017633090988219217 -0.00012660481121784723 -6.978101417718566e-05 -0.00011434860298111165 -0.00018845741154324537 -0.00016776447133120143 -0.0001821115533230846 -0.00011950900617548953 -0.00013289938565035826 -0.0001636746117690204 -0.00015847011427520412 -8.312925077916521e-05 -8.443044469962957e-05 -0.00011887142451806612 -0.0001314296274732444 -0.00015520050936177173 -0.00012937357432364296 -0.00014590354928028796 -0.00013284318436915214 -0.00014353558995850645 -0.00010185538556605713 -0.00011440445730154278 -0.00013402556766331557 -0.00011687548747624201 -0.00012772192002700713 -0.00010278491601112952 -0.00011410390642641467 -9.350515362868166e-05 -0.00015037485234665037 -0.0001430290234403897 -0.000124592195457856 -0.00014705492274996208 -7.850086015715921e-05 -9.743384105733052e-05 -8.971187995798842e-05 -5.168630470654967e-05 -6.97943685700627e-05 -0.00010892590646945465 -0.00010523327894465962 -6.417178531229797e-05 -6.677802280432031e-05 -0.00010055666812444062 -9.005029396235676e-05 -6.148839945546719e-05 -4.473430166661873e-05 -7.885728860546453e-05 -6.062432840515446e-05 -0.0001010466987819233 0.0015712253069235737 0.0004676185652272894 0.0002895382772745099 0.00043015980470239646 0.0005442530903466854 0.0004344722474474884 0.000976618963198526 -0.00019044584224461462 -0.0002151407409763151 -0.00015561614367074405 9.61984579244791e-06 -5.0683381030607784e-05 -0.0002689908709435796 -0.00025975595305307127 -0.000254807945339044 -0.0002665707396590421 -0.0002631694069601359 -0.0002705701411075553 -0.0002750401594157871 -0.00026902042467753546 -0.0002717696265567187 -0.0002791879139800525 0.0002738212260247594 -0.00018496252845924215 -0.00010311956454777775 -0.00012032299746281816 -0.00011486004545271831 -9.78003183033055e-05 -4.94170097386931e-05 -8.845993072629268e-05 -6.540893103703674e-05 -7.217599691665934e-05 -8.293557219614054e-05 -4.924619768406057e-05 -6.338748009340634e-05 -6.008482098703251e-05 -5.3499802760365306e-05 -3.4168486339984434e-05 -3.477241113430033e-05 -5.4709316377521445e-05 -4.150797875264785e-05 -2.7855983718131943e-05 -2.3246620356370437e-05 -2.3753343388245018e-05 -2.2394646517286433e-06 1.356680037255284e-05 -1.4563470517606654e-05 -1.6332868508094933e-05 -6.0342548392339684e-06 -1.1532298003932536e-05 7.936543894601185e-06 7.227531946075989e-06 2.8158471939333547e-05 -9.587055709516659e-06 2.6690669949395102e-06 -5.782647964206204e-06 1.2490677476003637e-05 -7.186560403848934e-05 -3.946361788134286e-05 -3.640888025326018e-05 -4.2972543696061576e-05 5.272010577497571e-06 3.760808364711062e-05 -1.0251943329802619e-05 -3.115040532276308e-05 2.5341711103271922e-05 1.8512756717461843e-05 2.918690552737562e-05 1.838427570379302e-05 3.332808262460608e-05 3.21100337719506e-05 2.1702744738460374e-05 4.963955940047546e-05 1.0100836990333488e-05 1.7942811460913744e-05 4.2516348987963525e-05 2.4436187797382782e-05 8.856155781024334e-05 2.509197284175391e-05 4.801470343910066e-05 4.0660910688298786e-05 6.526464837835025e-05 4.6050418206297115e-05 5.573564916914475e-05 3.9448033589597086e-05 4.411083811543639e-05 3.843537254574934e-05 5.758537541122093e-05 5.5385896981326284e-05 4.884027172684457e-05 4.60158689679821e-05 5.074793132705765e-05 6.875305247078435e-05 8.232834616836025e-05 5.9142134695581976e-05 6.853236967716662e-05 6.079188841917636e-05 7.25112287961186e-05 6.981337213506729e-05 7.813546956885552e-05 5.287210431476143e-05 5.6162257798324126e-05 6.348858875576838e-05 6.550174183715886e-05 7.277738197986828e-05 6.562975326498997e-05 6.583126053539937e-05 4.9992036163952575e-05 3.0400139335236725e-05 2.7214322102814243e-05 -1.5708293748581292e-05 -3.4073895109379175e-06 2.2701335710894002e-05 6.055013571236068e-05 7.601905896305597e-05 7.443441567988522e-05 8.751820791770516e-05 4.1128674741933804e-05 -5.980344684621034e-06 1.5310117078904684e-05 1.4739319279148383e-05 7.070454237175372e-05 7.760557318198003e-05 8.319579869353826e-05 8.051502442450982e-05 3.867160320923562e-05 -1.5629946290529563e-05 2.166054002510748e-05 7.384056614164287e-05 8.420882524383094e-05 7.464130062791974e-05 8.36958178597819e-05 8.848058742018886e-05 9.267955645891384e-05 9.054073015917235e-05 9.371636175535204e-05 8.821355015923031e-05 8.444072552063704e-05 6.773775080527448e-05 6.360136994090506e-05 6.119500325431201e-05 5.180736607200752e-05 2.5486202425395754e-05 8.171562804322505e-05 8.077737559645596e-05 4.0767937796819446e-05 7.001130733727652e-05 4.427097583225842e-05 3.4307942056126055e-05 5.261119556087375e-05 1.9409874702629182e-05 3.019699153236305e-05 3.187705108725675e-05 6.408918284674792e-05 5.699875959154327e-05 4.5423162025676725e-05 5.1025604546271625e-05 5.156086951903692e-05 4.1913005130393814e-05 4.143957199827015e-06 4.2261821919791044e-05 2.0414838932213244e-05 4.256456375025453e-05 3.280419028209875e-05 2.165151323831153e-05 1.98197314326433e-05 2.901224416233559e-05 -6.34400919559539e-06 4.50674153433234e-06 8.02857775770921e-06 -3.8330482124649085e-08 -1.5569154943992013e-07 -2.6234020562794617e-05 -1.1863992651027838e-05 -1.7626797541399303e-05 -1.9218984494929486e-05 -4.751189667153111e-05 -2.5386709940356544e-05 -3.422857399517882e-05 -4.929353452377477e-05 -3.441402117142437e-05 -1.834698631789081e-05 -9.521827349038752e-06 -4.870054924079884e-05 -1.9783430714163717e-05 1.6641409634534465e-06 -3.664776640864276e-05 -3.664352733803998e-05 -3.186944151421281e-05 -6.38430577267748e-05 -3.504543695146901e-07 1.0982569277478348e-05 3.162015964627548e-05 1.5754049783164264e-05 3.3995683684042345e-05 -8.703474269628196e-06 -4.4942366461049756e-05 -4.4919868613090303e-05 -2.8842778205623e-05 -6.309915506057984e-05 -7.808542260609219e-05 -7.875199501369183e-05 -7.747166033370374e-05 1.4538776925375456e-05 8.728624735462301e-06 2.3691416099066563e-05 -1.0843276899954005e-05 4.94805786310856e-05 -1.2234846528288316e-05 -3.1072596459040304e-05 -3.86842155829036e-05 -6.363458697255119e-05 -1.4794010253911955e-05 3.475560285696476e-05 -4.0048811306420706e-05 2.673078624474216e-06 5.0476039286961965e-05 3.905225819799697e-05 3.436856971486517e-07 1.6946645947736973e-05 4.3410144242421114e-05 5.1114902272870186e-05 4.9502829269769554e-05 6.66862733445365e-05 1.7392116527945613e-05 7.315200024607872e-05 3.180415586743459e-05 7.365496419804214e-05 6.2122838060931e-05 8.39199749335025e-05 4.197031488682047e-05 5.4472238598087654e-05 6.412408925869268e-05 8.745776726579124e-05 7.750575824850143e-05 7.416279720821498e-05 8.058944837492569e-05 6.918836979708286e-05 8.346908909436829e-05 8.65803213139092e-05 7.962768248719167e-05 8.44666475043154e-05 7.374596245968825e-05 6.0276287625683006e-05 6.111232756909123e-05 3.0291360135096625e-05 3.086114901568801e-05 -7.583666748779236e-05 -0.0001148694867459087 -0.0001199298399163273 -0.00012042780068692534 -0.00010266220388357876 -0.00010725959308612807 -9.617898442423469e-05 -8.274370141044012e-05 -8.905716868473599e-05 -0.0001022637960721292 0.0003193696144728695 0.0004947402982580577 -2.050315404253258e-05 0.0001890809647123529 -2.8843348606933625e-05 -3.5446321230459014e-05 4.0039665551864625e-05 6.339322133582216e-05 -4.244940804993421e-05 1.608851587106038e-05 -5.5415605734243995e-06 1.0446927153162297e-05 8.61874169424291e-05 -1.4440099688563815e-06 1.1207685478003715e-05 -4.450122423047793e-06 1.2348811424178809e-05 2.2732709575339663e-05 -3.50276886611606e-05 -4.7249941650383436e-05 -6.183996639916294e-05 -7.362569297393998e-05 -5.512775150000235e-05 2.7279897010452967e-05 4.7441521668975584e-05 -8.244491759463333e-05 0.0003047928550190368 -2.208032521049285e-05 -4.742052510055048e-05 0.00029464185734459343 -3.81240617776313e-05 0.0008247021611957375 0.0007036569945717973 -6.209992198078477e-05 5.563777077739534e-05 3.676081039420914e-05 9.583027956675891e-05 -6.171628345021411e-05 -3.4427178353616626e-05 3.0451535729321304e-05 -1.8390613349105183e-05 8.658928481730764e-05 2.7418992648128274e-05 -7.927875977233013e-05 0.0004469491556180581 0.0006891897085791803 0.0006621508710903339 0.0006790547794527085 -2.9650896445877957e-05 1.2995512191747264e-05 0.0006630846222806075 0.0006624765957324698 0.00010417057995013377 0.0009090062426751433 -7.986311642924673e-05 -5.1486001538685596e-05 -1.4392210792379774e-05 0.00011980187886570742 0.0005374498842393923 0.0007256353412051858 -5.5539009520379756e-05 4.0527428925389445e-06 0.00021494259350660872 0.0006120352768279059 -8.228612584242909e-07 0.0008348926966106105 0.000325261606004702 0.00029619136223020743 0.00021881645489405115 0.0007168548762277372 -1.2349425312090647e-05 -2.4820503325881963e-05 2.8085365492508295e-05 1.3606073059361768e-05 1.792295649140847e-06 -3.2559253967032264e-05 6.596901156769856e-05 6.230393373741772e-05 8.2378520399797e-05 7.253727645055536e-05 6.910498581727538e-05 0.00022720962645699424 0.0006664614562558962 -1.7945882730838033e-05 -2.1085045556504884e-05 0.0006360971712320671 0.0008309072969723967 8.92497974840926e-05 7.76256747223153e-05 -6.664514193048341e-05 -6.801950043687507e-05 0.0010164224399446832 0.0007114396578915919 7.414658556694411e-05 0.0009176539212252777 7.307938040763415e-05 9.55919256326711e-05 0.000738288297930672 6.958491018750451e-05 5.784702253847762e-05 8.85061315073046e-05 0.0006975776940626955 9.620095226686392e-05 0.0007027139586654202 0.0006974958922272913 4.939725278166818e-05 8.550956076546878e-05 9.550877157927896e-05 9.276795809395998e-05 8.478671390613181e-05 9.711347023538614e-05 7.871116448676935e-05 9.538961159156976e-05 8.06455482238665e-05 9.493846674397434e-05 9.726860723722019e-05 9.088034209348475e-05 9.334989572656119e-05 9.416626499804219e-05 9.627643098836881e-05 8.344497420232731e-05 7.702781288556011e-05 8.303347881767835e-05 8.074656846142783e-05 8.784627345860255e-05 8.314343186439873e-05 -4.8738837408620935e-05 4.4261715209472885e-05 6.118564863143378e-05 4.664335002450664e-05 5.336824339596934e-05 4.385969186147134e-05 6.44672608086455e-05 5.654289231169982e-05 8.077950296350492e-05 6.688764169724456e-05 9.332043947777704e-05 2.684158394312652e-05 2.3713421081818216e-05 0.0005040382551309678 0.0006605848582905998 0.0006212122936269824 0.0006836732068096883 4.8027329171656735e-05 -4.30085838913534e-06 -2.9947960885544566e-05 0.000682426713498779 0.0005293347508066304 2.798689656823808e-05 1.101981329388428e-06 0.0006447491302181029 -7.54492201950738e-05 0.0010142127768296174 0.0009824860682641071 6.538233953387743e-05 5.972854535656194e-05 4.023821811508079e-05 4.8439135716492055e-05 9.775316635204317e-05 9.570514671011496e-05 9.170690655594225e-05 9.636497340984976e-05 9.033306304647497e-05 9.305342880857894e-05 9.463764926873794e-05 9.579979735207776e-05 9.467189596710022e-05 8.474614621968248e-05 9.311720300871246e-05 9.377594271480431e-05 9.444779819039813e-05 9.607703851372125e-05 8.466614978465971e-05 9.4920669