<?xml version="1.0"?>
<VTKFile type="UnstructuredGrid"  version="0.1"  >
<UnstructuredGrid>
<Piece  NumberOfPoints="1289" NumberOfCells="2413">
<Points>
<DataArray  type="Float64"  NumberOfComponents="3"  format="ascii">0 0 0  0 0.41 0  2.2 0.41 0  2.2 0 0  0.1 0.1 0  0.1 0.3 0  0.8 0.3 0  0.8 0.1 0  0.25 0.2 0  0.248976 0.210065 0  0.245948 0.219718 0  0.241038 0.228563 0  0.234448 0.23624 0  0.226448 0.242432 0  0.217365 0.246888 0  0.207571 0.249423 0  0.197468 0.249936 0  0.187467 0.248404 0  0.17798 0.24489 0  0.169395 0.239539 0  0.162062 0.232569 0  0.156283 0.224265 0  0.152293 0.214968 0  0.150257 0.205058 0  0.150257 0.194942 0  0.152293 0.185032 0  0.156283 0.175735 0  0.162062 0.167431 0  0.169395 0.160461 0  0.17798 0.15511 0  0.187467 0.151596 0  0.197468 0.150064 0  0.207571 0.150577 0  0.217365 0.153112 0  0.226448 0.157568 0  0.234448 0.16376 0  0.241038 0.171437 0  0.245948 0.180282 0  0.248976 0.189935 0  1.1 0 0  1.1 0.41 0  0.1 0.2 0  0.45 0.1 0  0.45 0.3 0  0.55 0 0  0.275 0.1 0  0.275 0.3 0  0.275 0 0  0.55 0.41 0  0 0.205 0  0.825 0 0  0.825 0.41 0  0.275 0.41 0  0.1 0.15 0  0.1875 0.1 0  0.1 0.25 0  0.1875 0.3 0  0.132322 0.2 0  0.241426 0.253518 0  0.241426 0.146482 0  0.264574 0.17974 0  0.264574 0.22026 0  0.138434 0.187348 0  0.153372 0.150948 0  0.148413 0.164094 0  0.176495 0.136535 0  0.22768 0.143571 0  0.138434 0.212652 0  0.148413 0.235906 0  0.176495 0.263465 0  0.22768 0.256429 0  0.23125 0.3 0  0.24769 0.24094 0  0.23125 0.1 0  0.24769 0.15906 0  0.26253 0.193641 0  0.190482 0.137872 0  0.166753 0.146661 0  0.157737 0.244461 0  0.190482 0.262128 0  0.203107 0.261264 0  0.253635 0.22977 0  0.203107 0.138736 0  0.253635 0.17023 0  0.261028 0.206206 0  0.167707 0.251809 0  0.143629 0.224191 0  0.215302 0.2591 0  0.270465 0.245894 0  0.215302 0.1409 0  0.270465 0.154106 0  0.284052 0.202587 0  0.14375 0.3 0  0.209375 0.3 0  0.225966 0.278501 0  0.209375 0.1 0  0.225966 0.121499 0  0.211613 0.273759 0  0.211613 0.126241 0  0.143629 0.175809 0  0.1 0.175 0  0.133484 0.164832 0  0.144491 0.249539 0  0.1 0.225 0  0.133484 0.235168 0  0.3625 0.3 0  0.25691 0.253381 0  0.25691 0.146619 0  0.277205 0.188698 0  0.184724 0.275712 0  0.237372 0.268285 0  0.184724 0.124288 0  0.237372 0.131715 0  0.197578 0.273149 0  0.193656 0.286994 0  0.197578 0.126851 0  0.193656 0.113006 0  0.122953 0.187671 0  0.118362 0.153758 0  0.155372 0.258107 0  0.122953 0.212329 0  0.118362 0.246242 0  0.276394 0.27264 0  0.276394 0.12736 0  0.280965 0.170013 0  0.253125 0.3 0  0.14375 0.1 0  0.253125 0.1 0  0.269489 0.26014 0  0.269489 0.13986 0  0.303639 0.184297 0  0.165625 0.3 0  0.134742 0.273113 0  0.257831 0.274737 0  0.255279 0.128499 0  0.3625 0.1 0  0.165625 0.1 0  0.162031 0.132368 0  0.134955 0.126405 0  0.149334 0.125568 0  0.142936 0.139597 0  0.12695 0.140259 0  0.242514 0.285501 0  0.242514 0.114499 0  0.1 0.125 0  0.117483 0.12555 0  0.11154 0.139776 0  0.121875 0.1 0  0.109143 0.1125 0  0.126805 0.114 0  0.220313 0.29129 0  0.351562 0.287369 0  0.207222 0.2866 0  0.220312 0.10871 0  0.1375 0 0  0.20625 0 0  0.207222 0.1134 0  0.11722 0.17118 0  0.1 0.1625 0  0.0778409 0.16875 0  0.0862762 0.15625 0  0 0.15375 0  0 0.1025 0  0.11722 0.22882 0  0.1 0.2375 0  0 0.3075 0  0.0862762 0.23125 0  0.0598995 0.222547 0  0.0860223 0.2125 0  0.289584 0.181469 0  0.300267 0.16446 0  0.163832 0.269071 0  0.149597 0.273325 0  0.1 0.275 0  0.268498 0.285953 0  0.31875 0.3 0  0.294154 0.254672 0  0.296875 0.3 0  0.293558 0.271845 0  0.285095 0.286799 0  0.324298 0.264316 0  0.307866 0.263745 0  0.317093 0.234901 0  0.315485 0.281219 0  0.316547 0.250625 0  0.344693 0.243731 0  0.331592 0.251147 0  0.35129 0.270663 0  0.338689 0.263683 0  0.340625 0.3 0  0.249849 0.264383 0  0.265097 0.11422 0  0.284688 0.156136 0  0.242188 0.324017 0  0.0856613 0.2625 0  0.132812 0.0612217 0  0.264062 0.0612217 0  0.198437 0.07598340000000001 0  0.0860223 0.1375 0  0.0794526 0.191089 0  0.285228 0.140397 0  0.298655 0.148737 0  0.31875 0.1 0  0.327335 0.15374 0  0.296875 0.1 0  0.312289 0.155283 0  0.313348 0.135607 0  0.321802 0.173916 0  0.298433 0.134116 0  0.112124 0.2625 0  0.127526 0.259083 0  0.121875 0.3 0  0.0682687 0.241503 0  0.1 0.2875 0  0.117762 0.28125 0  0.107813 0.3 0  0.103906 0.313849 0  0.0778409 0.28125 0  0.1375 0.41 0  0.0862762 0.29375 0  0.08886860000000001 0.24375 0  0.307812 0.338778 0  0.307812 0.292227 0  0.33216 0.279164 0  0.387888 0.266414 0  0.264063 0.31948 0  0.110937 0.07598340000000001 0  0.242188 0.07598340000000001 0  0.319914 0.11839 0  0.340625 0.1 0  0.334448 0.133793 0  0.329687 0.108539 0  0.346259 0.118491 0  0.360334 0.173636 0  0.327539 0.205033 0  0.132812 0.288712 0  0.362436 0.278836 0  0.368105 0.259418 0  0.4125 0.41 0  0.329687 0.324017 0  0.329687 0.292306 0  0.285938 0.318952 0  0.417187 0.338778 0  0.324481 0.14148 0  0.351562 0.106771 0  0.40625 0.1 0  0.341028 0.168342 0  0.319221 0.190479 0  0.335292 0.184501 0  0.305563 0.20794 0  0.220313 0.31948 0  0.132812 0.332772 0  0.0865876 0.311259 0  0.0598995 0.302453 0  0.0906541 0.343255 0  0.353543 0.255837 0  0.36574 0.237633 0  0.405007 0.254279 0  0.275795 0.352123 0  0.4125 0 0  0.35493 0.137394 0  0.366563 0.120618 0  0.35917 0.205246 0  0.198438 0.318952 0  0.0626109 0.263892 0  0.40625 0.3 0  0.354809 0.155936 0  0.386512 0.146872 0  0.373101 0.159939 0  0.384375 0.1 0  0.343394 0.19929 0  0.350682 0.185683 0  0.368101 0.189748 0  0.344016 0.221511 0  0.391108 0.213329 0  0.376279 0.204783 0  0.398843 0.182768 0  0.375804 0.222746 0  0.390665 0.196958 0  0.394004 0.23518 0  0.359883 0.222828 0  0.419908 0.204359 0  0.404243 0.204783 0  0.412615 0.224526 0  0.20625 0.41 0  0.165625 0.325257 0  0.0347982 0.244954 0  0.379558 0.247154 0  0.34165 0.147603 0  0.372264 0.136992 0  0.388988 0.121989 0  0.373437 0.108554 0  0.351562 0.31948 0  0.391367 0.16527 0  0.399572 0.223324 0  0.452011 0.227371 0  0.40877 0.239392 0  0.431491 0.237337 0  0.421224 0.250459 0  0.449619 0.262098 0  0.418865 0.276779 0  0.437063 0.252274 0  0.415673 0.263227 0  0.430988 0.266772 0  0.402767 0.273419 0  0.452967 0.244883 0  0.428125 0.3 0  0.408502 0.286186 0  0.384375 0.3 0  0.392267 0.285807 0  0.465927 0.219339 0  0.43489 0.283846 0  0.376424 0.286289 0  0.625 0.3 0  0.473533 0.205186 0  0.461713 0.255517 0  0.5375 0.3 0  0.465725 0.235405 0  0.44631 0.201425 0  0.471875 0.3 0  0.494307 0.227729 0  0.459448 0.206736 0  0.462294 0.180792 0  0.478933 0.227536 0  0.486793 0.21381 0  0.486322 0.251373 0  0.50065 0.215318 0  0.54005 0.175389 0  0.474633 0.189893 0  0.512916 0.208697 0  0.49531 0.199967 0  0.475889 0.175275 0  0.625 0.1 0  0.459311 0.153933 0  0.513645 0.242704 0  0.392892 0.248539 0  0.374815 0.271913 0  0.365974 0.14871 0  0.395312 0.109184 0  0.417061 0.123981 0  0.483196 0.277003 0  0.381967 0.179632 0  0.429898 0.219374 0  0.433473 0.206165 0  0.43149 0.181038 0  0.444208 0.215487 0  0.472985 0.247309 0  0.49375 0.3 0  0.475579 0.262714 0  0.49916 0.274293 0  0.501175 0.184809 0  0.514164 0.225681 0  0.543648 0.214977 0  0.5341630000000001 0.23481 0  0.527396 0.216171 0  0.5375 0.1 0  0.534548 0.202315 0  0.561545 0.192513 0  0.5494289999999999 0.201221 0  0.570923 0.218346 0  0.412582 0.149833 0  0.489327 0.264745 0  0.502439 0.254775 0  0.462391 0.271166 0  0.496775 0.241732 0  0.5294410000000001 0.268606 0  0.482812 0.291099 0  0.46879 0.285038 0  0.452663 0.284065 0  0.51789 0.257882 0  0.53408 0.252026 0  0.560142 0.243543 0  0.545708 0.243474 0  0.547532 0.229019 0  0.55282 0.265323 0  0.398971 0.153424 0  0.400349 0.135684 0  0.410135 0.168145 0  0.428823 0.161323 0  0.415266 0.183779 0  0.329687 0.0810483 0  0.395312 0.0612217 0  0.373437 0.318952 0  0.439062 0.324017 0  0.561816 0.229354 0  0.585029 0.239287 0  0.431827 0.139854 0  0.446796 0.168929 0  0.351562 0.07598340000000001 0  0.395313 0.318944 0  0.54337 0.150762 0  0.460937 0.31948 0  0.418412 0.137529 0  0.428125 0.1 0  0.442783 0.152332 0  0.450742 0.134294 0  0.373437 0.0805201 0  0.384383 0.342558 0  0.482812 0.318952 0  0.429239 0.127457 0  0.444274 0.117405 0  0.426548 0.113815 0  0.49375 0.1 0  0.488954 0.113984 0  0.457973 0.121842 0  0.471621 0.137346 0  0.515625 0.325257 0  0.48125 0.41 0  0.417187 0.07598340000000001 0  0.496363 0.126778 0  0.479043 0.155715 0  0.439062 0.0805201 0  0.481795 0.126919 0  0.471875 0.1 0  0.489227 0.142159 0  0.515625 0.1 0  0.520062 0.147117 0  0.501244 0.161791 0  0.505431 0.112984 0  0.505344 0.14029 0  0.526563 0.119081 0  0.5181750000000001 0.131908 0  0.539868 0.136937 0  0.460937 0.108383 0  0.474242 0.114415 0  0.460937 0.0810483 0  0.487841 0.167168 0  0.526563 0.0612217 0  0.526563 0.106406 0  0.537619 0.112743 0  0.58125 0.1 0  0.559375 0.1 0  0.482812 0.08105569999999999 0  0.471883 0.0587655 0  0.570312 0.129396 0  0.548437 0.07598340000000001 0  0.504687 0.08105569999999999 0  0.49375 0.0470127 0  0.570312 0.112663 0  0.592798 0.12103 0  0.553986 0.12103 0  0.570312 0.0805201 0  0.48125 0 0  0.114787 0.2 0  0.160769 0.284765 0  0.175816 0.288361 0  0.162602 0.116048 0  0.154687 0.07598340000000001 0  0.176562 0.0805201 0  0.0598995 0.147547 0  0.307812 0.109924 0  0.291279 0.117157 0  0.278491 0.112989 0  0.285937 0.07598340000000001 0  0.307812 0.0805201 0  0.296928 0.196743 0  0.318141 0.218507 0  0.330208 0.227509 0  0.301397 0.225668 0  0.302706 0.241401 0  0.292574 0.21424 0  0.282762 0.230935 0  0.284351 0.244775 0  0.269553 0.23261 0  0.278572 0.217242 0  0.226924 0.342606 0  0.446928 0.185396 0  0.515625 0.3 0  0.504687 0.288879 0  0.515256 0.276534 0  0.529479 0.285328 0  0.58125 0.3 0  0.541969 0.272936 0  0.559375 0.3 0  0.556796 0.282529 0  0.543473 0.287206 0  0.581429 0.267774 0  0.566728 0.271171 0  0.570869 0.255585 0  0.577404 0.283865 0  0.603125 0.3 0  0.597531 0.28035 0  0.570312 0.338778 0  0.592188 0.292492 0  0.603513 0.256094 0  0.614063 0.286265 0  0.610329 0.27064 0  0.632708 0.251285 0  0.657223 0.261594 0  0.618789 0.257807 0  0.614188 0.22987 0  0.630935 0.265614 
[...]
<PointData  Scalars="p"> 
	<DataArray  type="Float64"  Name="p"  format="ascii">
0.0007016355278242311 0.0006755703660609237 -1.628240332098512e-07 -6.710698053170333e-08 0.0007608037618596953 0.0007533167906247101 5.7402718321758083e-05 5.593705498164692e-05 -0.0002651947378128363 -0.000279869253977333 -0.00033565475519491133 -0.00034323477718014336 -0.00033379395211278264 -0.0004065155107848229 -0.0003488192079733262 -0.00012954512015343671 -0.0002920348323398995 -0.00047417149883541624 -0.00031820441042797784 1.3650947510580944e-05 0.0005185054178058143 0.0011606759510309284 0.001681672570606461 0.0020102110824620567 0.0020048628744889843 0.0016639215408926675 0.0011453616664542042 0.0005050805490838566 -9.030952462920246e-05 -0.0003279936865232347 -0.0004435381580322935 -0.00029914358714364244 -0.00012740544841152246 -0.000346943237939546 -0.0004040900642061792 -0.00032707078832588206 -0.0003378701180167048 -0.00033424232082134535 -0.0002805293066380674 8.617344383204158e-05 8.382187119019138e-05 0.0014018583649473035 -0.00014913491874694472 -0.00014741061374544883 -7.428284299633492e-05 -7.876851418127254e-05 -8.53909631179337e-05 0.0001732981233272691 -5.706817872028184e-05 0.0009981210846756875 3.949017995015152e-05 4.017168139855876e-05 0.00019634497295321928 0.0010710204234149659 0.00027061302183593807 0.0010707807855396463 0.00028149129287827613 0.0018205448047879278 -0.000223475681383705 -0.00022285273973994885 -0.0002843225383365259 -0.0002869730197542524 0.0017706849574297937 0.0006042354532166827 0.000999395892990503 1.6166486448135707e-06 -0.0003486273340683994 0.0017842663101251628 0.001008281931541585 1.8971583670286983e-05 -0.00034773437401924406 4.5169631142331656e-05 -0.00019743518471887145 4.341545428886403e-05 -0.0002001661316680087 -0.000280891425653295 -0.00019408516254479214 0.00012265724874631126 0.0005043211324866614 -0.00020287346752913737 -0.00017382417672664378 -0.00031559212314543386 -0.00017589442592063546 -0.00031603333489345164 -0.0002809349093194289 9.616128382170553e-05 0.0014409102396168304 -0.00016238687234346877 -0.00027257211829097674 -0.00016114556903120393 -0.0002713967921909624 -0.00027364932459953523 0.0005944489879343579 0.0001245839962506316 -0.00017717330691171821 0.000153379207710243 -0.0001676932412968625 -0.00011411061560766234 -0.00011454227974193081 0.0014263823672227346 0.0012804394900570958 0.0012796221831969348 0.0008222480717920515 0.001300744008373705 0.0013025891255194352 -0.00016875110802153296 -0.0002377732107695686 -0.00024127536630632896 -0.0002778830413526193 8.753047274777564e-05 -0.00020564682315559084 7.972865770813102e-05 -0.00021257060234634273 -3.954033752007571e-05 0.00014082923178257876 -2.6273101110455983e-05 0.00014521232603712975 0.0016072567362934455 0.001133449046271726 0.0005496140407491159 0.0016058848143551932 0.00113932616109594 -0.00021562892420193275 -0.00022451531053224646 -0.0002754683633373437 -5.64792346957201e-05 0.0005934515815447822 -3.763493096656271e-05 -0.00023193940506552224 -0.0002368549964277669 -0.0002661004536269433 0.0004440473989050302 0.0007767315548741151 -0.00022873927761946447 -0.00021738324822265259 -0.0001664504593178618 0.00046523303307541026 0.00040750757973258625 0.0007557283813465166 0.0006132639857963216 0.0007021209053917092 0.0009097988948677985 -0.000101419214596725 -9.167707603351231e-05 0.000879721533258855 0.0008458033124486525 0.000969755452579846 0.0007040649081899954 0.0007915026982928933 0.0007425124329503938 -1.6373038233906043e-06 -0.00020400814197379772 2.703363540450307e-05 4.6517039909526484e-08 0.0006158983249910068 0.00040601914718013606 4.68148852874852e-05 0.0013444573201670364 0.0011731738205816742 0.001134585044342989 0.001080210896065022 0.0009318294387043522 0.0007899587449942544 0.001346948841468613 0.0011945493716033625 0.0007587294052996083 0.0011549234757837698 0.0010900052854572468 0.0012505726385740662 -0.00027229061231424294 -0.0002673335755397651 0.0003551341945528397 0.0005896213107299629 0.0008792824233420478 -0.00017066161217820067 -0.0001449404380588278 -0.0002738141295261204 -0.00013907879327781895 -0.0002522724771892222 -0.00018877576829759288 -0.0002551275577366796 -0.0002502148698295916 -0.00026168234471900687 -0.00022071327220439893 -0.0002558380277439438 -0.000250738247494307 -0.0002551683550961866 -0.0002379098748317033 -0.000245083725901824 -0.0001780460040529617 -0.0002250443872088214 -0.00018885164544178422 -0.00026763671978438224 0.00014414451053678938 0.0009720605822517966 0.0006109936922346153 0.00013714602498283843 0.0003458142487836755 0.0009524304776074797 0.0012126273646704561 -0.0002611490081496337 -0.00026380042606954685 -0.00014076527260986746 -0.0002559518830578203 -0.00014498330523686248 -0.0002622510753949204 -0.0002540866742418408 -0.0002584446450036358 -0.00025696317635740673 0.0009577189368636946 0.0009154370188032895 0.0007008903429123747 0.0010407817344188278 0.0008195141133146606 0.00080150445979273 0.000732336785412754 0.0006985806679750051 0.0008488228837434701 0.0005880120080236615 0.0007955435022694718 0.0010988222471412384 2.048484323728144e-05 -0.00018404398244423135 -0.00023184919410484538 -0.0002250907383897165 4.8173259263046844e-05 0.0006848782913482642 0.000151190386968823 -0.0002292305473103164 -0.00017288552481127745 -0.00024326191725944352 -0.00019416938472919493 -0.0002218490780929194 -0.0002411721360559905 -0.0002559846961727222 0.0006831702342241533 -0.00022704435076117431 -0.00023716976951188888 -5.336769113508482e-05 -6.194812133527977e-05 -0.00020186451546068296 -1.651710785694152e-05 -9.6940675297847e-05 -0.0002524946582411499 -0.00018656473065778038 -0.00016412231654515359 -0.000250473776185395 -0.000259426115428675 -0.00025250310565220287 -0.0002653786143491254 0.00018594680192477017 0.0006052259198586027 0.000734508678275919 0.0007741707954439438 0.0006619253159742364 -0.000246102480126304 -0.0002410855964221671 -0.00021740447508813258 0.00014639907198794712 -7.927272246073834e-05 -0.00023933123721196677 -0.00021591723263545676 -0.0002417381875749794 0.0003189152008284517 0.0009262419553298952 -0.000165516378821212 -0.00024370888646482275 -0.00022601587919536835 -0.0002345664435813381 -0.0001692058929278259 -0.0002489280518992857 -0.00024547375316813974 -0.0002369701837899585 -0.00024968077650904197 -0.00022524570373444726 -0.00023303209071490083 -0.0002195864723747075 -0.00023485271122428747 -0.0002245600761537533 -0.0002255448209801842 -0.000242745183630418 -0.00020558113475644394 -0.00021635985659408845 -0.00021243171940223205 0.0004173082546066055 0.00047060975557744553 0.0009531796830000454 -0.00023442805868360348 -0.0002486614654409 -0.0002289889935446924 -0.00020793658766265872 -0.0001942195441309481 -0.0001037610462780119 -0.00022439316874705797 -0.00022103906984588742 -0.00018143666855566034 -0.00021619576160618038 -0.0001991098877258838 -0.00020658656341639614 -0.0001805581386118077 -0.0001953713106264798 -0.00019330111617401593 -0.00020713276024038042 -0.00019386578638605438 -0.0002102172041247874 -0.00018038222177297312 -0.00015863234683280265 -0.0001919439873694846 -0.00017726711494745078 -0.00019945423418860468 -0.00016866135423568995 -0.00017781704338447574 -0.00020819041932389537 -2.072516625354416e-05 -0.00016169828034686087 -0.00017041053966549975 -8.551565069475563e-05 -0.00016909878205568837 -0.0001853775679613813 -0.00013281625165133194 -0.00014185379647483883 -0.00017403876905854753 -0.00017299577638553887 -0.00015687359340978984 -0.00014909339916520408 -0.0001483793598774181 -0.00013556534062467233 -9.830575079082101e-05 -0.00016137645345757286 -0.000123429692076207 -0.00014130779857042286 -0.00016170623632037826 -2.1941643781958792e-05 -0.00017624518525315988 -0.00012244421498661803 -0.00022604361273158042 -0.0002236966939202575 -0.0002365257157676483 -0.00018500185592233056 -0.00019529698387911725 -0.0001421221520548111 -0.00022968659450049305 -0.00019929094545161535 -0.0001955657799999038 -0.0001974828246547978 -0.00018747924834726173 -0.00016167813893330543 -0.00011559453788455302 -0.00015568689601089147 -0.000130033248449945 -0.00013699340232636083 -0.00012217593902841625 -9.176986371351242e-05 -0.00010202934942717161 -0.00010861574419905767 -8.819423139155615e-05 -0.0001014617529725648 -7.348631410146994e-05 -8.588115701147298e-05 -6.3473452431617e-05 -0.00020981203897324957 -0.0001422010445115575 -0.00013203132445940502 -0.00016490574156484474 -0.0001391590697464306 -0.0001040468966798687 -0.00013268010158213245 -0.0001492465293499308 -0.0001631256544284193 -0.00011678379309909432 -0.00010152524005770599 -7.599694774161205e-05 -9.066384352994364e-05 -8.824255675588579e-05 -8.235228566522135e-05 -0.0002188049004250386 -0.00021392344606058049 -0.00021297118742666008 -0.0002000192290659312 -0.0002088837056055816 -9.411202236041785e-05 -9.024812552566226e-05 -0.00012480544525121044 -0.0001157962250425542 -7.360442697842311e-05 -5.064110163174409e-05 -0.00019441998171398605 -0.0001863696431855563 -9.09428622993101e-05 -0.00012259452636595293 -9.584333900211654e-05 -0.00011625878192809851 -0.00020125441347062855 -0.00015937729843478317 -0.000188937504159688 -0.00017856064642941146 -0.00012552917116379447 -6.983615677922056e-05 -0.00011239800447066825 -0.00018874097458235306 -0.0001695429080852604 -0.00018221716060653142 -0.00012297611341530496 -0.0001369599961361653 -0.00016647956688891187 -0.0001624929674716201 -8.27476032996802e-05 -8.402686007617564e-05 -0.0001187740976674491 -0.00013632697738389385 -0.00015931990937249646 -0.00012995347248458258 -0.00015038684312061425 -0.00013567262283085813 -0.00014849788945093357 -0.00010500423630338865 -0.00011966261709095914 -0.00013891210108599205 -0.00012101693546726582 -0.00013309840127642594 -0.00010714936365157863 -0.00011920506994519578 -9.792342544276769e-05 -0.00015300005185116478 -0.00014678451581531335 -0.00012601575364675345 -0.0001510353384655451 -7.995903679635132e-05 -0.00010125975717369358 -9.300646239126576e-05 -5.319690549794255e-05 -7.21863673674164e-05 -0.00011092442809422978 -0.00010623099584620093 -6.650989511540592e-05 -6.838711515237546e-05 -0.00010284796753689704 -9.075338080663002e-05 -6.335978031604325e-05 -4.540575170564885e-05 -8.20833842227706e-05 -6.296269566750454e-05 -0.00010151718045710676 0.0015712903324199465 0.00046765837875542777 0.00028958195380032406 0.00043024102925218985 0.0005443567354778164 0.0004345801134594284 0.0009766994589145521 -0.0001892216707100469 -0.00021443431637260544 -0.00015510971190519038 1.0142725380459396e-05 -4.9908955430428265e-05 -0.0002688891584031953 -0.00026005356367843395 -0.0002554887425596243 -0.00026686740415453997 -0.00026366357651246735 -0.0002706883064195708 -0.0002752221994165898 -0.00026921804524349834 -0.00027185656465491365 -0.0002793244933597339 0.0002738241603641922 -0.00018533796587064745 -0.0001023597236856862 -0.00011802088816721736 -0.00011333771046416164 -9.819308357801846e-05 -5.268005085345618e-05 -9.070687158909369e-05 -6.829875861674507e-05 -7.587489639994575e-05 -8.511325210726689e-05 -5.544963900394187e-05 -6.839777533797301e-05 -6.583120239289778e-05 -5.830856448744102e-05 -3.79563007113634e-05 -4.0558369860465124e-05 -5.5089308777093365e-05 -4.606561024258867e-05 -3.4132715230575975e-05 -2.7607469511760605e-05 -2.948209867717413e-05 -5.981722858426279e-06 1.2642717434349124e-05 -1.9744844150703002e-05 -2.053287097758195e-05 -1.0044861682551e-05 -1.621143582578231e-05 7.317782909590062e-06 5.512261938429456e-06 2.8871062465123564e-05 -1.301095263644548e-05 2.2753916016849318e-07 -7.467887932957245e-06 1.2368306851827824e-05 -7.232313434426021e-05 -4.113550901074008e-05 -4.2708089241454014e-05 -4.9361077566570575e-05 3.914002706829259e-06 4.0318924254982555e-05 -1.1861164378367452e-05 -3.30484206726248e-05 2.628423165643459e-05 1.8704732050211837e-05 3.011476546332384e-05 1.8788314465148915e-05 3.569479517404266e-05 3.3721586888871687e-05 2.174564133589519e-05 5.232015491122772e-05 8.189282363734552e-06 1.7246432039811727e-05 4.518822745521712e-05 2.5487828208791968e-05 8.858389957937588e-05 2.561737876358512e-05 5.1301019308641616e-05 4.265019920919763e-05 6.846691073120072e-05 4.89662145295038e-05 5.925856211327049e-05 4.0989466771010966e-05 4.5184458614684315e-05 3.9530411909437436e-05 6.0872829433725874e-05 5.800527827654101e-05 5.194130227816255e-05 4.8445502928007794e-05 5.263558678312873e-05 7.021093381329677e-05 8.275686050965079e-05 6.235692776110313e-05 7.086418965579718e-05 6.304833999530979e-05 7.310039941207438e-05 7.224910102058353e-05 7.967592460398037e-05 5.400874322287235e-05 5.766912780717267e-05 6.431668445041365e-05 6.612831362391975e-05 7.314625393078349e-05 6.582821337794753e-05 6.60995453407915e-05 5.1380159820311166e-05 3.233273955864483e-05 2.8542364018730014e-05 -1.7668929704344856e-05 -4.836484109215293e-06 2.197725619581871e-05 6.31361711914852e-05 7.715723234193376e-05 7.668246712783741e-05 8.788730206325022e-05 4.1445908076456004e-05 -6.738785757596417e-06 1.4933498116890513e-05 1.4071327864356202e-05 7.344025643199607e-05 7.936688912287236e-05 8.401288489808425e-05 8.199807972875625e-05 3.844648097640278e-05 -1.6813863389199493e-05 2.1961097461139028e-05 7.513537245800342e-05 8.502344038450546e-05 7.630115120230994e-05 8.339492870686748e-05 8.869010946186404e-05 9.229657283148298e-05 9.042405470524584e-05 9.301658188119682e-05 8.811845941018192e-05 8.529716829946041e-05 6.9887183978509e-05 6.548995402255918e-05 6.347159532491696e-05 5.4189125113434965e-05 2.6369102797234715e-05 8.131862544456846e-05 8.177724553330904e-05 4.3232086887454624e-05 7.178871939563635e-05 4.654949060281342e-05 3.617294761718211e-05 5.503298627112806e-05 2.1484569387231896e-05 3.2385534495777434e-05 3.45274553501154e-05 6.612106308127958e-05 5.925499399220392e-05 4.8063732343968566e-05 5.313238136704578e-05 5.393756816947964e-05 4.452180090010174e-05 4.918165832930371e-06 4.454430113784753e-05 2.2626626487037882e-05 4.314476047047752e-05 3.5013037231306774e-05 2.4171880189240784e-05 2.2244494054899252e-05 3.156662177468752e-05 -5.142683763633662e-06 6.454074066339025e-06 9.936388835399433e-06 2.2150081080385322e-08 8.599579612039397e-07 -2.7155908100384694e-05 -1.1918870735492923e-05 -1.9793318831398472e-05 -1.9051188586194056e-05 -4.910775820120457e-05 -2.4996152947732193e-05 -3.509083504375136e-05 -5.1713834749456845e-05 -3.487135361766697e-05 -1.774426316442968e-05 -8.341667969139889e-06 -4.9914981365503465e-05 -1.8954493745356302e-05 3.504699574612618e-06 -3.725035845199363e-05 -3.727920660456223e-05 -3.25281960827759e-05 -6.642857731173921e-05 1.1150830603901687e-06 1.2676494283958742e-05 3.2945740997764386e-05 1.6500803538376023e-05 3.6236217534415276e-05 -8.387419036241342e-06 -4.546430119554734e-05 -4.633984069060784e-05 -2.9172324305948972e-05 -6.595430691183306e-05 -8.14744233148248e-05 -8.254762244429155e-05 -8.116583551096044e-05 1.537285237452343e-05 1.0041388254401542e-05 2.4666357187154587e-05 -1.1526698409410943e-05 5.059032100037612e-05 -1.1374642035410122e-05 -3.180621738971002e-05 -4.007939195870048e-05 -6.672409374212242e-05 -1.5632293675973932e-05 3.559038315230746e-05 -4.142000884620497e-05 2.282034577120938e-06 5.1745805558521344e-05 3.9707243691455366e-05 -4.568571128321783e-08 1.7278839097244256e-05 4.410220502920911e-05 5.167595059801548e-05 4.990627331314304e-05 6.726496933589244e-05 1.7555252114239147e-05 7.295549290948104e-05 3.2470088370913186e-05 7.356911986852983e-05 6.2405558855998e-05 8.327782309094071e-05 4.2501866461650636e-05 5.476868212285892e-05 6.44506494546272e-05 8.712092728423967e-05 7.795305827293104e-05 7.441151825748337e-05 8.050444938547791e-05 7.018343632900799e-05 8.354560708246362e-05 8.664244359472468e-05 8.03139514485785e-05 8.498072955425376e-05 7.473805764247196e-05 6.14857454125366e-05 6.278616751871056e-05 3.0092916079681333e-05 3.13410279063391e-05 -7.539319628901045e-05 -0.00011803643397673352 -0.00012434386819360556 -0.00012552085677108534 -0.00010754580637988413 -0.00011137028262892662 -9.972359424427375e-05 -8.636400241073535e-05 -8.830303082860132e-05 -0.00010223116179754547 0.0003194467079880117 0.0004948617026582649 -1.999291478824384e-05 0.00018904190646043146 -3.446303135472737e-05 -3.952082591162921e-05 4.2051798961157075e-05 6.622686876396952e-05 -4.288710070343327e-05 1.5495641861354696e-05 -5.780247660197971e-06 9.084892307590242e-06 8.525757622595633e-05 -2.9633364902335826e-06 1.1269031870142879e-05 -7.304257098208832e-06 1.3499465735004576e-05 2.431859237394223e-05 -3.740702199410714e-05 -5.063522762506908e-05 -6.530186886193985e-05 -7.706341808227291e-05 -5.671376841166697e-05 2.743693687878897e-05 4.826478082574197e-05 -8.268305350476576e-05 0.00030476773111862767 -2.5675239857984403e-05 -5.2186356828448846e-05 0.00029463183975762764 -3.848683240808563e-05 0.0008247916322041505 0.0007036974101270922 -6.131362496470225e-05 5.631441695615521e-05 3.7710719336034704e-05 9.521973532717019e-05 -6.109799819479788e-05 -3.370859398845583e-05 3.0955028180356585e-05 -1.789525464362423e-05 8.697593781623781e-05 2.721877712577357e-05 -7.936246753511016e-05 0.00044697246484562793 0.0006892870882319155 0.0006621901088462345 0.0006790939621116546 -2.920756172668472e-05 1.1939467935722506e-05 0.0006631829931089172 0.0006625155533227391 0.00010404123789875045 0.0009090578927982116 -8.076141778065009e-05 -5.1588288028225675e-05 -1.582808855333037e-05 0.0001201512012502941 0.0005374823684538061 0.0007256767050571215 -5.508600767198763e-05 2.7989978848847998e-06 0.0002150967076947721 0.0006120722042539727 -2.5792953973392737e-06 0.00083493941931082 0.0003254422402473668 0.00029640634181142225 0.00021907218061698302 0.0007169509831288171 -1.3177855243369828e-05 -2.602708169485221e-05 2.8790064840283472e-05 1.3764346419925642e-05 1.6734224651224371e-06 -3.387218292619216e-05 6.596651865278843e-05 6.25993645711674e-05 8.215801798211788e-05 7.238301729169018e-05 6.927411015715102e-05 0.0002271578898800099 0.0006665004350687344 -1.812690608580994e-05 -2.2264603362473166e-05 0.0006361352836774325 0.0008309959561630407 8.921728510722225e-05 7.746955701181283e-05 -6.65796958920598e-05 -6.726088969761627e-05 0.0010164937316075875 0.000711536829734957 7.414882183528676e-05 0.0009177357313527078 7.291727881762051e-05 9.569834103463532e-05 0.0007383834496964187 6.945636952106745e-05 5.808035418811931e-05 8.846108039239507e-05 0.0006976754259209527 9.59973527301557e-05 0.0007028116062146476 0.0006975935401208247 4.995245148253484e-05 8.5331767606665e-05 9.519624643859964e-05 9.23241713467158e-05 8.465885432680022e-05 9.661239553827579e-05 7.848501581686083e-05 9.53893481609942e-05 8.039584236070237e-05 9.508586068213251e-05 9.732099446093859e-05 9.073623171399865e-05 9.286532743237737e-05 9.38891897481664e-05 9.625723352649866e-05 8.315442498103276e-05 7.682867928295878e-05 8.282080340129492e-05 8.050567573300535e-05 8.755140642240189e-05 8.287513605890062e-05 -4.8450528718215644e-05 4.558817250476185e-05 6.184322266990505e-05 4.7600396716724363e-05 5.429658685987822e-05 4.489163305171022e-05 6.497945305501899e-05 5.7294563233867725e-05 8.076618176001107e-05 6.711587459457352e-05 9.253631823806717e-05 2.7090318097226385e-05 2.3583564074043318e-05 0.0005040661422769236 0.0006606839588027844 0.0006213148793970865 0.0006837713398779538 4.784750668508952e-05 -4.47771971602326e-06 -3.082366092561492e-05 0.0006824661982879265 0.0005294526739407707 2.86240034814449e-05 8.227094027050969e-07 0.000644787654335182 -7.51875054540234e-05 0.001014275379737493 0.0009825584017256177 6.539216644050748e-05 5.994167120502907e-05 4.0978220349121226e-05 4.8944043749263575e-05 9.759386410147891e-05 9.481087846144552e-05 9.117969469932477e-05 9.655935030276726e-05 9.080020827209361e-05 9.3317577828917e-05 9.51584577708182e-05 9.598346271185302e-05 9.468405044573634e-05 8.476911010405314e-05 9.336977359601587e-05 9.436439151871652e-05 9.504055036219748e-05 9.561822005942995e-05 8.49579130669554e-05 9.504879060177475e-05 6.191943302922243e-05