<?xml version="1.0"?>
<VTKFile type="UnstructuredGrid"  version="0.1"  >
<UnstructuredGrid>
<Piece  NumberOfPoints="1289" NumberOfCells="2413">
<Points>
<DataArray  type="Float64"  NumberOfComponents="3"  format="ascii">0 0 0  0 0.41 0  2.2 0.41 0  2.2 0 0  0.1 0.1 0  0.1 0.3 0  0.8 0.3 0  0.8 0.1 0  0.25 0.2 0  0.248976 0.210065 0  0.245948 0.219718 0  0.241038 0.228563 0  0.234448 0.23624 0  0.226448 0.242432 0  0.217365 0.246888 0  0.207571 0.249423 0  0.197468 0.249936 0  0.187467 0.248404 0  0.17798 0.24489 0  0.169395 0.239539 0  0.162062 0.232569 0  0.156283 0.224265 0  0.152293 0.214968 0  0.150257 0.205058 0  0.150257 0.194942 0  0.152293 0.185032 0  0.156283 0.175735 0  0.162062 0.167431 0  0.169395 0.160461 0  0.17798 0.15511 0  0.187467 0.151596 0  0.197468 0.150064 0  0.207571 0.150577 0  0.217365 0.153112 0  0.226448 0.157568 0  0.234448 0.16376 0  0.241038 0.171437 0  0.245948 0.180282 0  0.248976 0.189935 0  1.1 0 0  1.1 0.41 0  0.1 0.2 0  0.45 0.1 0  0.45 0.3 0  0.55 0 0  0.275 0.1 0  0.275 0.3 0  0.275 0 0  0.55 0.41 0  0 0.205 0  0.825 0 0  0.825 0.41 0  0.275 0.41 0  0.1 0.15 0  0.1875 0.1 0  0.1 0.25 0  0.1875 0.3 0  0.132322 0.2 0  0.241426 0.253518 0  0.241426 0.146482 0  0.264574 0.17974 0  0.264574 0.22026 0  0.138434 0.187348 0  0.153372 0.150948 0  0.148413 0.164094 0  0.176495 0.136535 0  0.22768 0.143571 0  0.138434 0.212652 0  0.148413 0.235906 0  0.176495 0.263465 0  0.22768 0.256429 0  0.23125 0.3 0  0.24769 0.24094 0  0.23125 0.1 0  0.24769 0.15906 0  0.26253 0.193641 0  0.190482 0.137872 0  0.166753 0.146661 0  0.157737 0.244461 0  0.190482 0.262128 0  0.203107 0.261264 0  0.253635 0.22977 0  0.203107 0.138736 0  0.253635 0.17023 0  0.261028 0.206206 0  0.167707 0.251809 0  0.143629 0.224191 0  0.215302 0.2591 0  0.270465 0.245894 0  0.215302 0.1409 0  0.270465 0.154106 0  0.284052 0.202587 0  0.14375 0.3 0  0.209375 0.3 0  0.225966 0.278501 0  0.209375 0.1 0  0.225966 0.121499 0  0.211613 0.273759 0  0.211613 0.126241 0  0.143629 0.175809 0  0.1 0.175 0  0.133484 0.164832 0  0.144491 0.249539 0  0.1 0.225 0  0.133484 0.235168 0  0.3625 0.3 0  0.25691 0.253381 0  0.25691 0.146619 0  0.277205 0.188698 0  0.184724 0.275712 0  0.237372 0.268285 0  0.184724 0.124288 0  0.237372 0.131715 0  0.197578 0.273149 0  0.193656 0.286994 0  0.197578 0.126851 0  0.193656 0.113006 0  0.122953 0.187671 0  0.118362 0.153758 0  0.155372 0.258107 0  0.122953 0.212329 0  0.118362 0.246242 0  0.276394 0.27264 0  0.276394 0.12736 0  0.280965 0.170013 0  0.253125 0.3 0  0.14375 0.1 0  0.253125 0.1 0  0.269489 0.26014 0  0.269489 0.13986 0  0.303639 0.184297 0  0.165625 0.3 0  0.134742 0.273113 0  0.257831 0.274737 0  0.255279 0.128499 0  0.3625 0.1 0  0.165625 0.1 0  0.162031 0.132368 0  0.134955 0.126405 0  0.149334 0.125568 0  0.142936 0.139597 0  0.12695 0.140259 0  0.242514 0.285501 0  0.242514 0.114499 0  0.1 0.125 0  0.117483 0.12555 0  0.11154 0.139776 0  0.121875 0.1 0  0.109143 0.1125 0  0.126805 0.114 0  0.220313 0.29129 0  0.351562 0.287369 0  0.207222 0.2866 0  0.220312 0.10871 0  0.1375 0 0  0.20625 0 0  0.207222 0.1134 0  0.11722 0.17118 0  0.1 0.1625 0  0.0778409 0.16875 0  0.0862762 0.15625 0  0 0.15375 0  0 0.1025 0  0.11722 0.22882 0  0.1 0.2375 0  0 0.3075 0  0.0862762 0.23125 0  0.0598995 0.222547 0  0.0860223 0.2125 0  0.289584 0.181469 0  0.300267 0.16446 0  0.163832 0.269071 0  0.149597 0.273325 0  0.1 0.275 0  0.268498 0.285953 0  0.31875 0.3 0  0.294154 0.254672 0  0.296875 0.3 0  0.293558 0.271845 0  0.285095 0.286799 0  0.324298 0.264316 0  0.307866 0.263745 0  0.317093 0.234901 0  0.315485 0.281219 0  0.316547 0.250625 0  0.344693 0.243731 0  0.331592 0.251147 0  0.35129 0.270663 0  0.338689 0.263683 0  0.340625 0.3 0  0.249849 0.264383 0  0.265097 0.11422 0  0.284688 0.156136 0  0.242188 0.324017 0  0.0856613 0.2625 0  0.132812 0.0612217 0  0.264062 0.0612217 0  0.198437 0.07598340000000001 0  0.0860223 0.1375 0  0.0794526 0.191089 0  0.285228 0.140397 0  0.298655 0.148737 0  0.31875 0.1 0  0.327335 0.15374 0  0.296875 0.1 0  0.312289 0.155283 0  0.313348 0.135607 0  0.321802 0.173916 0  0.298433 0.134116 0  0.112124 0.2625 0  0.127526 0.259083 0  0.121875 0.3 0  0.0682687 0.241503 0  0.1 0.2875 0  0.117762 0.28125 0  0.107813 0.3 0  0.103906 0.313849 0  0.0778409 0.28125 0  0.1375 0.41 0  0.0862762 0.29375 0  0.08886860000000001 0.24375 0  0.307812 0.338778 0  0.307812 0.292227 0  0.33216 0.279164 0  0.387888 0.266414 0  0.264063 0.31948 0  0.110937 0.07598340000000001 0  0.242188 0.07598340000000001 0  0.319914 0.11839 0  0.340625 0.1 0  0.334448 0.133793 0  0.329687 0.108539 0  0.346259 0.118491 0  0.360334 0.173636 0  0.327539 0.205033 0  0.132812 0.288712 0  0.362436 0.278836 0  0.368105 0.259418 0  0.4125 0.41 0  0.329687 0.324017 0  0.329687 0.292306 0  0.285938 0.318952 0  0.417187 0.338778 0  0.324481 0.14148 0  0.351562 0.106771 0  0.40625 0.1 0  0.341028 0.168342 0  0.319221 0.190479 0  0.335292 0.184501 0  0.305563 0.20794 0  0.220313 0.31948 0  0.132812 0.332772 0  0.0865876 0.311259 0  0.0598995 0.302453 0  0.0906541 0.343255 0  0.353543 0.255837 0  0.36574 0.237633 0  0.405007 0.254279 0  0.275795 0.352123 0  0.4125 0 0  0.35493 0.137394 0  0.366563 0.120618 0  0.35917 0.205246 0  0.198438 0.318952 0  0.0626109 0.263892 0  0.40625 0.3 0  0.354809 0.155936 0  0.386512 0.146872 0  0.373101 0.159939 0  0.384375 0.1 0  0.343394 0.19929 0  0.350682 0.185683 0  0.368101 0.189748 0  0.344016 0.221511 0  0.391108 0.213329 0  0.376279 0.204783 0  0.398843 0.182768 0  0.375804 0.222746 0  0.390665 0.196958 0  0.394004 0.23518 0  0.359883 0.222828 0  0.419908 0.204359 0  0.404243 0.204783 0  0.412615 0.224526 0  0.20625 0.41 0  0.165625 0.325257 0  0.0347982 0.244954 0  0.379558 0.247154 0  0.34165 0.147603 0  0.372264 0.136992 0  0.388988 0.121989 0  0.373437 0.108554 0  0.351562 0.31948 0  0.391367 0.16527 0  0.399572 0.223324 0  0.452011 0.227371 0  0.40877 0.239392 0  0.431491 0.237337 0  0.421224 0.250459 0  0.449619 0.262098 0  0.418865 0.276779 0  0.437063 0.252274 0  0.415673 0.263227 0  0.430988 0.266772 0  0.402767 0.273419 0  0.452967 0.244883 0  0.428125 0.3 0  0.408502 0.286186 0  0.384375 0.3 0  0.392267 0.285807 0  0.465927 0.219339 0  0.43489 0.283846 0  0.376424 0.286289 0  0.625 0.3 0  0.473533 0.205186 0  0.461713 0.255517 0  0.5375 0.3 0  0.465725 0.235405 0  0.44631 0.201425 0  0.471875 0.3 0  0.494307 0.227729 0  0.459448 0.206736 0  0.462294 0.180792 0  0.478933 0.227536 0  0.486793 0.21381 0  0.486322 0.251373 0  0.50065 0.215318 0  0.54005 0.175389 0  0.474633 0.189893 0  0.512916 0.208697 0  0.49531 0.199967 0  0.475889 0.175275 0  0.625 0.1 0  0.459311 0.153933 0  0.513645 0.242704 0  0.392892 0.248539 0  0.374815 0.271913 0  0.365974 0.14871 0  0.395312 0.109184 0  0.417061 0.123981 0  0.483196 0.277003 0  0.381967 0.179632 0  0.429898 0.219374 0  0.433473 0.206165 0  0.43149 0.181038 0  0.444208 0.215487 0  0.472985 0.247309 0  0.49375 0.3 0  0.475579 0.262714 0  0.49916 0.274293 0  0.501175 0.184809 0  0.514164 0.225681 0  0.543648 0.214977 0  0.5341630000000001 0.23481 0  0.527396 0.216171 0  0.5375 0.1 0  0.534548 0.202315 0  0.561545 0.192513 0  0.5494289999999999 0.201221 0  0.570923 0.218346 0  0.412582 0.149833 0  0.489327 0.264745 0  0.502439 0.254775 0  0.462391 0.271166 0  0.496775 0.241732 0  0.5294410000000001 0.268606 0  0.482812 0.291099 0  0.46879 0.285038 0  0.452663 0.284065 0  0.51789 0.257882 0  0.53408 0.252026 0  0.560142 0.243543 0  0.545708 0.243474 0  0.547532 0.229019 0  0.55282 0.265323 0  0.398971 0.153424 0  0.400349 0.135684 0  0.410135 0.168145 0  0.428823 0.161323 0  0.415266 0.183779 0  0.329687 0.0810483 0  0.395312 0.0612217 0  0.373437 0.318952 0  0.439062 0.324017 0  0.561816 0.229354 0  0.585029 0.239287 0  0.431827 0.139854 0  0.446796 0.168929 0  0.351562 0.07598340000000001 0  0.395313 0.318944 0  0.54337 0.150762 0  0.460937 0.31948 0  0.418412 0.137529 0  0.428125 0.1 0  0.442783 0.152332 0  0.450742 0.134294 0  0.373437 0.0805201 0  0.384383 0.342558 0  0.482812 0.318952 0  0.429239 0.127457 0  0.444274 0.117405 0  0.426548 0.113815 0  0.49375 0.1 0  0.488954 0.113984 0  0.457973 0.121842 0  0.471621 0.137346 0  0.515625 0.325257 0  0.48125 0.41 0  0.417187 0.07598340000000001 0  0.496363 0.126778 0  0.479043 0.155715 0  0.439062 0.0805201 0  0.481795 0.126919 0  0.471875 0.1 0  0.489227 0.142159 0  0.515625 0.1 0  0.520062 0.147117 0  0.501244 0.161791 0  0.505431 0.112984 0  0.505344 0.14029 0  0.526563 0.119081 0  0.5181750000000001 0.131908 0  0.539868 0.136937 0  0.460937 0.108383 0  0.474242 0.114415 0  0.460937 0.0810483 0  0.487841 0.167168 0  0.526563 0.0612217 0  0.526563 0.106406 0  0.537619 0.112743 0  0.58125 0.1 0  0.559375 0.1 0  0.482812 0.08105569999999999 0  0.471883 0.0587655 0  0.570312 0.129396 0  0.548437 0.07598340000000001 0  0.504687 0.08105569999999999 0  0.49375 0.0470127 0  0.570312 0.112663 0  0.592798 0.12103 0  0.553986 0.12103 0  0.570312 0.0805201 0  0.48125 0 0  0.114787 0.2 0  0.160769 0.284765 0  0.175816 0.288361 0  0.162602 0.116048 0  0.154687 0.07598340000000001 0  0.176562 0.0805201 0  0.0598995 0.147547 0  0.307812 0.109924 0  0.291279 0.117157 0  0.278491 0.112989 0  0.285937 0.07598340000000001 0  0.307812 0.0805201 0  0.296928 0.196743 0  0.318141 0.218507 0  0.330208 0.227509 0  0.301397 0.225668 0  0.302706 0.241401 0  0.292574 0.21424 0  0.282762 0.230935 0  0.284351 0.244775 0  0.269553 0.23261 0  0.278572 0.217242 0  0.226924 0.342606 0  0.446928 0.185396 0  0.515625 0.3 0  0.504687 0.288879 0  0.515256 0.276534 0  0.529479 0.285328 0  0.58125 0.3 0  0.541969 0.272936 0  0.559375 0.3 0  0.556796 0.282529 0  0.543473 0.287206 0  0.581429 0.267774 0  0.566728 0.271171 0  0.570869 0.255585 0  0.577404 0.283865 0  0.603125 0.3 0  0.597531 0.28035 0  0.570312 0.338778 0  0.592188 0.292492 0  0.603513 0.256094 0  0.614063 0.286265 0  0.610329 0.27064 0  0.632708 0.251285 0  0.657223 0.261594 0  0.618789 0.257807 0  0.614188 0.22987 0  0.630935 0.265614 
[...]
<PointData  Scalars="p"> 
	<DataArray  type="Float64"  Name="p"  format="ascii">
0.0007013753664831741 0.0006750041116836024 -1.4721816055477356e-07 -2.993212770124067e-08 0.0007605600809021551 0.0007527672804078841 5.5346073762342454e-05 6.0653495186579014e-05 -0.0002647669377865571 -0.0002790260183370089 -0.0003337383737035649 -0.00033771450267022155 -0.0003300045893165722 -0.00040280163487286543 -0.00034387162813842586 -0.00013031630386590938 -0.0002927458883245954 -0.0004748311241786198 -0.00031879286656218153 1.311848289074605e-05 0.0005180222329343818 0.0011602227122354154 0.0016812429879890182 0.002009799839166175 0.0020044832585250304 0.001663589021616526 0.0011451079268690006 0.0005049691262239248 -9.018807316547967e-05 -0.00032763522615006607 -0.0004428662950472791 -0.00029840591289324165 -0.0001266750048853673 -0.00035183296854266 -0.00040667222735269327 -0.00032600397012784275 -0.00033485645232496516 -0.0003326852220469862 -0.0002796758416540484 8.85825975821728e-05 8.320913525821944e-05 0.0014014777478466645 -0.00015171947511592734 -0.00014926088769126188 -7.535124932776063e-05 -7.907196380984903e-05 -8.669243680345314e-05 0.00017288509037231923 -5.617999875016619e-05 0.0009977228929938145 4.473106898685889e-05 3.836475269673799e-05 0.00019559489097581927 0.001070739651645942 0.0002704824799792224 0.00107029971134503 0.0002807948070666263 0.0018201567991885678 -0.0002262499699159522 -0.00022284812408509516 -0.00028306869136126173 -0.00028575064978001314 0.0017703346073501942 0.0006041250856258128 0.0009991835222273818 1.8201225794498111e-06 -0.00035061494302582503 0.0017838433402325594 0.001007799357429702 1.8357990608426692e-05 -0.0003457771941948079 4.402810520615595e-05 -0.00020090930538329565 4.317798192301034e-05 -0.000200862186305313 -0.0002800297496940067 -0.00019360573352488088 0.0001227399653393507 0.0005038042696255971 -0.00020352145683204975 -0.00017441105256936896 -0.00031336832785973937 -0.00017530993906249626 -0.0003141695588575425 -0.0002800965097144433 9.559854688050116e-05 0.001440461383149798 -0.00016272528538483703 -0.0002727382181261317 -0.00016070579506563285 -0.0002704314118981102 -0.00027294784973714653 0.0005938411667529209 0.00012382377376408767 -0.00017742547695115415 0.00015313111636532794 -0.00016886372804703517 -0.0001146699118102223 -0.00011449161095472798 0.0014260877926071162 0.0012801132921980022 0.0012793589244913038 0.0008217275232621722 0.001300309990039143 0.0013021135873406877 -0.00016891069466791331 -0.00024074775543136165 -0.00024161038006495397 -0.0002769441430015775 8.689810790225825e-05 -0.00020769773390565423 7.980345579178785e-05 -0.00021297651698738026 -4.012976984549778e-05 0.00014016459141513393 -2.6158535724591115e-05 0.00014515111592751538 0.0016069090729284566 0.0011331877905150505 0.0005490595759703276 0.0016054692321944763 0.0011388393320973926 -0.00021751330253214218 -0.00022422604834111944 -0.00027435013677091477 -5.7711987920004805e-05 0.0005932775028238939 -3.817669706118519e-05 -0.00023424248886754346 -0.00023676021665502254 -0.00026569229219103264 0.00044340031211467426 0.0007761767033296205 -0.0002307973040378403 -0.00021823779252254916 -0.0001686126151732362 0.00046509489668313084 0.0004074719221254468 0.0007555498324441129 0.0006131380620916199 0.0007019711232414903 0.0009095853419685936 -0.00010338593066896636 -9.17023163763667e-05 0.0008794682190277453 0.0008455787937826407 0.0009695078169409063 0.0007038526539459898 0.0007912687024290083 0.0007423097791808872 -2.30517620395895e-06 -0.00020391284462304319 2.6363569102464964e-05 -5.51388655689588e-07 0.00061571204579354 0.00040581387974682946 4.664628980794352e-05 0.001344155424985773 0.0011728718037310717 0.0011342539713806818 0.0010799061806385545 0.0009314997005618103 0.0007896730710947276 0.0013464977042177968 0.0011940909825216943 0.0007581998326922257 0.0011544823852321056 0.0010895837918013572 0.0012501652244852391 -0.0002714679834742585 -0.00026671818902426785 0.0003545412242658232 0.0005890434568281143 0.0008787633924996258 -0.0001723109047878627 -0.0001453953259765599 -0.00027372977111621267 -0.00013974749072370317 -0.00025281607131558674 -0.0001898433405684402 -0.0002550298854847118 -0.00025064483867582584 -0.00026170610802982787 -0.00022107059420890934 -0.00025607943791935197 -0.0002507629181826726 -0.0002551097608771861 -0.00023762991540773616 -0.0002449918582955339 -0.0001781302381530119 -0.00022816744322459595 -0.0001895321709553284 -0.00026687935614649194 0.00014323507382767663 0.0009715693339159532 0.0006107889168941501 0.00013681720897535605 0.00034561221416519895 0.0009521480493385907 0.0012122599477289748 -0.000260900985083026 -0.00026324049106219946 -0.0001416114935468042 -0.0002565239286594381 -0.00014566732792732978 -0.00026216947917231373 -0.0002542780188969966 -0.00025867985571519065 -0.00025688287812482795 0.0009572070738821203 0.0009149151897462065 0.0007003166105559922 0.0010403288127332376 0.0008189801295545768 0.0008009587858186858 0.0007317786498418779 0.0006980135620177708 0.0008483093801055511 0.0005873594242446718 0.0007950119987452147 0.0010983581575316026 1.973973417650048e-05 -0.00018459416514644283 -0.0002318050047098332 -0.00022524591224942683 4.71456479882338e-05 0.0006846482808501633 0.00015080990412475885 -0.00023012275273973922 -0.00017448705932830377 -0.00024437033925792036 -0.0001954404962299971 -0.00022372489787445473 -0.00024305038041697564 -0.0002562485255007627 0.0006825954707321395 -0.00022679559809323183 -0.00023701449451000835 -5.332871166382086e-05 -6.248782668284262e-05 -0.00020192439252136272 -1.7346743524560618e-05 -9.733758475991878e-05 -0.0002530318671657127 -0.000188564100689618 -0.00016705119305168524 -0.0002516100433583752 -0.00025950789965311646 -0.0002531832962527716 -0.0002651337793133345 0.0001850627267988759 0.0006046083720886839 0.0007339591498333736 0.0007736429584599966 0.0006613484333347312 -0.00024588771926882 -0.0002414182041786152 -0.00021848932558726517 0.00014560307176003014 -8.059680847971107e-05 -0.00024154848685701451 -0.0002187017748141783 -0.0002427703954533659 0.00031815206085496304 0.0009257578844595511 -0.00016636860116358513 -0.0002456665198033631 -0.00022949696752365273 -0.00023728880523402531 -0.00017194874720868672 -0.00024966568811047484 -0.0002467073775404635 -0.00023867935171330507 -0.00025008879686042523 -0.0002268766654724487 -0.00023452333369084266 -0.0002223466065995446 -0.00023582107227172164 -0.00022666348422724356 -0.00022665922579867166 -0.00024337299211957465 -0.00020808155719499033 -0.00021854599316734486 -0.00021441539013805947 0.0004165542740796815 0.0004699326314207855 0.000952725480210679 -0.00023476323547372193 -0.00025003856447029885 -0.00023201878256652876 -0.00021150211847862946 -0.0001970348936860867 -0.0001041456619304601 -0.00022756616624671877 -0.00022263617095328513 -0.00018430098920712705 -0.0002177805240037321 -0.00020164190638944203 -0.00020855434191960622 -0.00018362441212264644 -0.00019689199767899108 -0.000195989775651795 -0.00020861794276262578 -0.00019610037528697687 -0.0002109499379355901 -0.00018351598133632118 -0.00016002423516858479 -0.0001929573988570641 -0.00017757835756444595 -0.00019985380317221873 -0.00017122223727985018 -0.0001800299816559209 -0.00020817163614887592 -1.7642002943332208e-05 -0.00016390916572460985 -0.00017362476783644903 -8.321397770331289e-05 -0.00017198681701837887 -0.00018807023229969457 -0.00013464501690315314 -0.0001431905017169305 -0.00017654679593321213 -0.00017570975270971936 -0.0001591643811301676 -0.00015075094245524897 -0.00015073061131525012 -0.00013635797230043088 -9.846291230210904e-05 -0.0001636422219094272 -0.00012338060510376015 -0.0001425740004794314 -0.00016420703418532269 -1.8891156657839535e-05 -0.00017954202226335146 -0.00012200823992733801 -0.00022675728867395232 -0.00022356150467117364 -0.00023912280097422513 -0.00018824868812342718 -0.00019920286912223983 -0.00014441819623499635 -0.00023214614025466874 -0.0002018055483575737 -0.00019818431562000502 -0.000200593324476246 -0.00019018029335256912 -0.00016466710605011445 -0.0001163641878699684 -0.0001586748935166558 -0.0001312864052509331 -0.00013836964768827663 -0.00012171059124321064 -8.881917089675317e-05 -9.914749643112406e-05 -0.00010709600369990207 -8.936170388765289e-05 -0.00010014574487280173 -7.139165962167489e-05 -8.366338890493507e-05 -5.827243829099152e-05 -0.00021370171648267474 -0.00014437147083241802 -0.00013304081486089416 -0.00016806553674821023 -0.0001405433190777062 -0.00010178132923342806 -0.00013443569149268554 -0.00015193003940495187 -0.00016564872956148998 -0.00011598540899348172 -9.847904623945476e-05 -6.994367813127533e-05 -8.619288807905583e-05 -8.406674451683671e-05 -7.711012029943251e-05 -0.00022243705371975483 -0.00021783754007051839 -0.00021640866546974495 -0.00020368291456663144 -0.0002118598338493694 -9.527718615051685e-05 -9.176829752937162e-05 -0.0001251953439945005 -0.00011645966225360073 -6.807656780463559e-05 -4.317858743526789e-05 -0.0001983402129514214 -0.00018965260590284033 -9.22782926024397e-05 -0.00012315544105561687 -9.663965130529428e-05 -0.0001171377858790832 -0.00020523378422672355 -0.00016243958977344653 -0.00019258255651328896 -0.0001821033372295138 -0.00012738895987849535 -7.023595437128275e-05 -0.00011298155853867162 -0.00019255432354544862 -0.00017275711984941918 -0.00018581586875319006 -0.00012472539439299052 -0.00013929279410003197 -0.00016967873743428707 -0.0001654994813653453 -8.182003545216396e-05 -8.362708938161221e-05 -0.00012076665336809849 -0.0001385257075888281 -0.00016206784657606482 -0.0001322337831425177 -0.00015306599554825334 -0.00013781969216982242 -0.00015104089709784386 -0.00010654807873775713 -0.00012128710705989211 -0.00014092965431030923 -0.00012294470383970973 -0.00013520660411906802 -0.00010825004829873361 -0.00012082946746283594 -9.888335173233473e-05 -0.00015582974841897132 -0.00014922077507736322 -0.00012814632900372706 -0.00015333249378542122 -8.108110576478593e-05 -0.00010196534471548533 -9.41562416281884e-05 -5.224382567758552e-05 -7.215449433243062e-05 -0.00011242409158062327 -0.00010796403360438043 -6.596605602361234e-05 -6.922074541704781e-05 -0.00010429571127893396 -9.209950860055508e-05 -6.292611823286266e-05 -4.409050116338031e-05 -8.209286236774954e-05 -6.23473786896429e-05 -0.00010307490606425148 0.0015709079232798856 0.0004670441128462228 0.000288935309668469 0.0004301458186287586 0.0005441731204066671 0.00043441149193929133 0.0009763864999685041 -0.00018971351018890733 -0.00021483275952821705 -0.00015509142986806603 9.54900535571046e-06 -5.0582531348190515e-05 -0.00026839140921181275 -0.00026009632447439416 -0.0002556889143071556 -0.0002667009287639824 -0.00026376297440742455 -0.00027022831450141126 -0.0002747408381177472 -0.0002694103160300214 -0.0002714898103492265 -0.0002785081602236001 0.000272985161151117 -0.00018823289227481657 -0.00010152675146254868 -0.00011831506703901516 -0.00011289497325603667 -9.62201605266443e-05 -4.874350920938746e-05 -8.706114362685456e-05 -6.452072454347911e-05 -7.117008179777776e-05 -8.175114311943252e-05 -4.845703412352024e-05 -6.252553102405874e-05 -5.889074551220521e-05 -5.2902082590428274e-05 -3.3816682406855907e-05 -3.444980342432334e-05 -5.33985854181729e-05 -4.103894830705453e-05 -2.684540588225934e-05 -2.2990831622552592e-05 -2.327056983506793e-05 -1.1865413044126837e-06 1.3622590817611824e-05 -1.3692517810673765e-05 -1.4245966603093228e-05 -5.6033238020651215e-06 -9.976591997726162e-06 7.180180023053428e-06 9.487598264794983e-06 2.6182678543196343e-05 -9.641883793220802e-06 2.6159862318950603e-06 -5.982925320159911e-06 1.1949074661879027e-05 -7.051254806858382e-05 -3.862443727088041e-05 -3.574132996647417e-05 -4.1808312521325696e-05 4.654159501207342e-06 3.628596396695822e-05 -1.1008822952758052e-05 -3.061747220347516e-05 2.459150009360785e-05 1.716356872236598e-05 3.01283241888739e-05 1.7311295098650083e-05 3.1603618486870506e-05 3.174107474160778e-05 2.2134387575613098e-05 4.949443174930929e-05 1.0968368302260662e-05 1.9474207123098285e-05 4.168119086712995e-05 2.8064339552029036e-05 8.914273049105718e-05 2.7324822298785234e-05 4.602939215663416e-05 4.334385580058275e-05 6.179779897469063e-05 4.340956643926661e-05 5.287681021247839e-05 3.694865080135031e-05 4.181315224330948e-05 3.614250314643903e-05 5.566487417978058e-05 5.226138009619069e-05 4.619181761600515e-05 4.3434044483156157e-05 4.801600647863455e-05 6.550796577197629e-05 7.976423737575198e-05 5.5802172797253915e-05 6.490593593963889e-05 5.787185643309484e-05 7.06150226594573e-05 6.870172252206521e-05 7.460211797468724e-05 5.083661561761084e-05 5.3659291151960664e-05 6.104888483061576e-05 6.377453946860037e-05 7.276065392729538e-05 6.452932992868037e-05 6.614274480504334e-05 4.8851469883272845e-05 2.9078219418799443e-05 2.5565287111682326e-05 -1.5599553795515303e-05 -4.156703258629879e-06 2.0760778980202457e-05 6.137547497346928e-05 7.319984691592617e-05 7.092487929017638e-05 8.523888382001317e-05 3.894186506849482e-05 -6.1914135732203486e-06 1.80736281189844e-05 1.3310529589014589e-05 6.775857426138798e-05 7.59281995295041e-05 8.024236197360596e-05 7.725048394712737e-05 3.606337711439953e-05 -1.5557802964772296e-05 1.995769367625736e-05 7.897957423130375e-05 8.33418768963621e-05 7.615040832992297e-05 8.295172541467505e-05 8.747551704920336e-05 9.249376764378272e-05 8.927938011238013e-05 9.379881386163129e-05 8.636815062680131e-05 8.205595470030515e-05 6.951657359498882e-05 7.14424255674322e-05 6.496380013817878e-05 5.472747673714492e-05 3.151697819819782e-05 8.532426146444834e-05 8.227505428210814e-05 4.697814289188454e-05 7.401724145751114e-05 4.853288723968223e-05 3.861383644219804e-05 5.866695087045198e-05 2.5485744878605212e-05 3.610820379042311e-05 4.0340275363546896e-05 6.995772522062292e-05 6.444794942249138e-05 5.3763350627280784e-05 6.008057479364284e-05 6.017923663500196e-05 5.111807470975387e-05 8.812765396182792e-06 5.1462444317921996e-05 2.78640588466431e-05 4.885980080190919e-05 4.1758400231413945e-05 2.995538855830194e-05 2.734615310216201e-05 3.637838023683897e-05 -1.5907022195174829e-06 1.1131872691538014e-05 1.4024374469658302e-05 3.466780186486609e-06 4.306457671863388e-06 -2.4478056601736104e-05 -8.856370842428998e-06 -1.5293200920338463e-05 -1.6286568504457926e-05 -4.78243331899596e-05 -2.214148037480244e-05 -3.3090752183289426e-05 -4.974680089417144e-05 -3.271639574971877e-05 -1.4701796234967815e-05 -4.2899369144400676e-06 -4.862361626653109e-05 -1.5842384035155237e-05 7.699898292782068e-06 -3.473174982464433e-05 -3.591428061538117e-05 -2.939443981988786e-05 -6.59714930435795e-05 5.866837016150814e-06 1.8572278953031682e-05 3.989900168533053e-05 2.139989650552831e-05 4.185576658668602e-05 -4.803020478202255e-06 -4.4780972586487836e-05 -4.552870718243535e-05 -2.6765931663355386e-05 -6.518616876393667e-05 -8.174415494382446e-05 -8.273507188255748e-05 -8.07232861240796e-05 2.0660598275673183e-05 1.5030550841065522e-05 3.100506711443002e-05 -9.127536471034336e-06 5.7606624882038146e-05 -7.898159546251418e-06 -3.102993738412817e-05 -4.028964061298311e-05 -6.528513142038957e-05 -1.4024235164402415e-05 4.118874521963917e-05 -4.1053054793608244e-05 5.6501887376603e-06 5.7694757436489696e-05 4.610740866333344e-05 3.2872183981722946e-06 2.244149253406464e-05 4.994937184330034e-05 5.7603305905113385e-05 5.5438979768621486e-05 7.335615842279861e-05 2.2392963038483054e-05 7.688432029917983e-05 3.8347957720367175e-05 7.868826229796495e-05 6.709610792657349e-05 8.44172735120741e-05 4.812904587724515e-05 6.036066315187887e-05 6.97425870916709e-05 9.058764506011052e-05 8.35531273170566e-05 8.015760187848309e-05 8.550747917903471e-05 7.67810770148578e-05 8.79373290208111e-05 8.913518833553042e-05 8.427583515433496e-05 8.592117412916697e-05 8.044055618207645e-05 6.809739259282932e-05 6.971742494604981e-05 2.958883995680986e-05 3.062083099885571e-05 -7.481979905658102e-05 -0.0001182893791750959 -0.00012554623863534218 -0.00012715322114828975 -0.00010856172585039133 -0.00011183133589898803 -9.91612926558146e-05 -8.539588874174555e-05 -8.844483497307058e-05 -0.00010379744980628458 0.00031937085473636857 0.0004946876649803215 -2.091770277027837e-05 0.00018817339906059626 -2.7120072453640877e-05 -3.356872853271659e-05 4.087259901256174e-05 6.21121592337322e-05 -4.163522673334652e-05 1.4282144613658156e-05 -6.234159306734699e-06 8.979753230336525e-06 8.889941044380049e-05 1.4327871601623708e-06 1.465825802746715e-05 -2.0175354754401727e-06 1.693488031777764e-05 2.7528715674941782e-05 -3.3759348428796706e-05 -4.622321834905079e-05 -6.168221886282517e-05 -7.316603287345848e-05 -5.7509102946323633e-05 3.309113482774062e-05 5.387350148474951e-05 -8.393840851732016e-05 0.0003039952796146034 -1.9854400431482308e-05 -4.5759567485814145e-05 0.00029383350275755213 -3.707692437263473e-05 0.0008245176438385196 0.0007031458243746193 -6.060447043345097e-05 5.784427096304789e-05 3.5082560954201005e-05 9.586110288575442e-05 -6.233064548676214e-05 -3.466990501660843e-05 3.03117873154197e-05 -1.8796578357046405e-05 8.639115809175173e-05 2.503650241706931e-05 -8.04130932764782e-05 0.0004462334372415482 0.0006890416860164078 0.000661610345136898 0.0006785318458759234 -3.022234997652583e-05 1.1254223315589076e-05 0.0006629628945467365 0.0006619438375723645 0.0001033650756520851 0.0009085872853684903 -8.209246352217812e-05 -5.1677331668066424e-05 -1.4681739201790747e-05 0.00011963226418867825 0.0005368090306407183 0.000725135525283113 -5.6259634827483304e-05 2.679021225679328e-06 0.00021484817862749573 0.0006114527835576152 -1.9291011051640127e-06 0.0008344381806510077 0.00032520304914414056 0.0002961310415630811 0.0002187286868731396 0.000716689751472916 -1.1087425538525794e-05 -2.5188219855090053e-05 3.4870215499786564e-05 1.8719744347030134e-05 5.720143623355476e-06 -3.4440790404698305e-05 6.863907044713722e-05 6.457290677264276e-05 8.017553761523389e-05 6.809058829140265e-05 7.504298462016024e-05 0.00022637963414548232 0.0006659304300528774 -1.8363550533109782e-05 -2.1118539186430923e-05 0.0006355291943010531 0.0008307022980086481 8.458072537499428e-05 7.322249167185588e-05 -6.63403579379969e-05 -6.675544972036363e-05 0.0010161298332601076 0.0007112729122241302 7.273564408464173e-05 0.0009174156764415876 6.836737149934071e-05 9.095930415410034e-05 0.0007381106431783286 6.696138720593065e-05 5.8866578079631014e-05 8.390637501215216e-05 0.0006974161769880218 9.224685032896777e-05 0.0007025516140711116 0.000697336012291381 5.371614163016931e-05 8.16264850506007e-05 0.00010326238274102471 8.950084616105375e-05 8.073354700728772e-05 9.995102127977635e-05 7.288570695394783e-05 9.199703710861713e-05 7.673007778702383e-05 9.079872017932382e-05 9.911989014767887e-05 8.935150273665637e-05 9.530390069266943e-05 9.431325894217809e-05 9.761031862702881e-05 8.097361640684652e-05 7.222462338457931e-05 7.881183606168263e-05 7.63856238755746e-05 8.748049789507505e-05 8.218369664308298e-05 -4.746559889738318e-05 4.298445983661497e-05 6.3688215695138e-05 4.680668532608355e-05 5.373927246404687e-05 4.321274011353965e-05 6.579379351101374e-05 5.8464937214101893e-05 8.653064408489336e-05 7.225397996595936e-05 9.39029913125877e-05 2.5098071069707e-05 2.1731502019658123e-05 0.0005033569870978463 0.0006604548567951251 0.0006211155709247197 0.0006835232956347514 4.730150373372017e-05 -4.861131111050436e-06 -2.949427164300415e-05 0.0006819064403516038 0.0005292806272301894 3.427477078314561e-05 4.408350655531543e-06 0.0006441958193639216 -7.474245905319918e-05 0.0010138676257435803 0.0009821958457961733 6.387390869993672e-05 6.103676256653055e-05 4.637643705388271e-05 5.2351380759285484e-05 9.859669364510635e-05 9.891840028979715e-05 9.843887927710369e-05 9.77184192664734e-05 9.149342217898987e-05 9.85767377562855e-05 9.610474842543987e-05 0.0001010443124288223 0.00010100594640747607 9.122891369222022e-05 8.900270922008912e-05 9.118193698093284e-05 9.187531999833738e-05 9.844034496431006e-05 8.384951094029672e-05 9.25174486434