<?xml version="1.0"?>
<VTKFile type="UnstructuredGrid"  version="0.1"  >
<UnstructuredGrid>
<Piece  NumberOfPoints="1289" NumberOfCells="2413">
<Points>
<DataArray  type="Float64"  NumberOfComponents="3"  format="ascii">0 0 0  0 0.41 0  2.2 0.41 0  2.2 0 0  0.1 0.1 0  0.1 0.3 0  0.8 0.3 0  0.8 0.1 0  0.25 0.2 0  0.248976 0.210065 0  0.245948 0.219718 0  0.241038 0.228563 0  0.234448 0.23624 0  0.226448 0.242432 0  0.217365 0.246888 0  0.207571 0.249423 0  0.197468 0.249936 0  0.187467 0.248404 0  0.17798 0.24489 0  0.169395 0.239539 0  0.162062 0.232569 0  0.156283 0.224265 0  0.152293 0.214968 0  0.150257 0.205058 0  0.150257 0.194942 0  0.152293 0.185032 0  0.156283 0.175735 0  0.162062 0.167431 0  0.169395 0.160461 0  0.17798 0.15511 0  0.187467 0.151596 0  0.197468 0.150064 0  0.207571 0.150577 0  0.217365 0.153112 0  0.226448 0.157568 0  0.234448 0.16376 0  0.241038 0.171437 0  0.245948 0.180282 0  0.248976 0.189935 0  1.1 0 0  1.1 0.41 0  0.1 0.2 0  0.45 0.1 0  0.45 0.3 0  0.55 0 0  0.275 0.1 0  0.275 0.3 0  0.275 0 0  0.55 0.41 0  0 0.205 0  0.825 0 0  0.825 0.41 0  0.275 0.41 0  0.1 0.15 0  0.1875 0.1 0  0.1 0.25 0  0.1875 0.3 0  0.132322 0.2 0  0.241426 0.253518 0  0.241426 0.146482 0  0.264574 0.17974 0  0.264574 0.22026 0  0.138434 0.187348 0  0.153372 0.150948 0  0.148413 0.164094 0  0.176495 0.136535 0  0.22768 0.143571 0  0.138434 0.212652 0  0.148413 0.235906 0  0.176495 0.263465 0  0.22768 0.256429 0  0.23125 0.3 0  0.24769 0.24094 0  0.23125 0.1 0  0.24769 0.15906 0  0.26253 0.193641 0  0.190482 0.137872 0  0.166753 0.146661 0  0.157737 0.244461 0  0.190482 0.262128 0  0.203107 0.261264 0  0.253635 0.22977 0  0.203107 0.138736 0  0.253635 0.17023 0  0.261028 0.206206 0  0.167707 0.251809 0  0.143629 0.224191 0  0.215302 0.2591 0  0.270465 0.245894 0  0.215302 0.1409 0  0.270465 0.154106 0  0.284052 0.202587 0  0.14375 0.3 0  0.209375 0.3 0  0.225966 0.278501 0  0.209375 0.1 0  0.225966 0.121499 0  0.211613 0.273759 0  0.211613 0.126241 0  0.143629 0.175809 0  0.1 0.175 0  0.133484 0.164832 0  0.144491 0.249539 0  0.1 0.225 0  0.133484 0.235168 0  0.3625 0.3 0  0.25691 0.253381 0  0.25691 0.146619 0  0.277205 0.188698 0  0.184724 0.275712 0  0.237372 0.268285 0  0.184724 0.124288 0  0.237372 0.131715 0  0.197578 0.273149 0  0.193656 0.286994 0  0.197578 0.126851 0  0.193656 0.113006 0  0.122953 0.187671 0  0.118362 0.153758 0  0.155372 0.258107 0  0.122953 0.212329 0  0.118362 0.246242 0  0.276394 0.27264 0  0.276394 0.12736 0  0.280965 0.170013 0  0.253125 0.3 0  0.14375 0.1 0  0.253125 0.1 0  0.269489 0.26014 0  0.269489 0.13986 0  0.303639 0.184297 0  0.165625 0.3 0  0.134742 0.273113 0  0.257831 0.274737 0  0.255279 0.128499 0  0.3625 0.1 0  0.165625 0.1 0  0.162031 0.132368 0  0.134955 0.126405 0  0.149334 0.125568 0  0.142936 0.139597 0  0.12695 0.140259 0  0.242514 0.285501 0  0.242514 0.114499 0  0.1 0.125 0  0.117483 0.12555 0  0.11154 0.139776 0  0.121875 0.1 0  0.109143 0.1125 0  0.126805 0.114 0  0.220313 0.29129 0  0.351562 0.287369 0  0.207222 0.2866 0  0.220312 0.10871 0  0.1375 0 0  0.20625 0 0  0.207222 0.1134 0  0.11722 0.17118 0  0.1 0.1625 0  0.0778409 0.16875 0  0.0862762 0.15625 0  0 0.15375 0  0 0.1025 0  0.11722 0.22882 0  0.1 0.2375 0  0 0.3075 0  0.0862762 0.23125 0  0.0598995 0.222547 0  0.0860223 0.2125 0  0.289584 0.181469 0  0.300267 0.16446 0  0.163832 0.269071 0  0.149597 0.273325 0  0.1 0.275 0  0.268498 0.285953 0  0.31875 0.3 0  0.294154 0.254672 0  0.296875 0.3 0  0.293558 0.271845 0  0.285095 0.286799 0  0.324298 0.264316 0  0.307866 0.263745 0  0.317093 0.234901 0  0.315485 0.281219 0  0.316547 0.250625 0  0.344693 0.243731 0  0.331592 0.251147 0  0.35129 0.270663 0  0.338689 0.263683 0  0.340625 0.3 0  0.249849 0.264383 0  0.265097 0.11422 0  0.284688 0.156136 0  0.242188 0.324017 0  0.0856613 0.2625 0  0.132812 0.0612217 0  0.264062 0.0612217 0  0.198437 0.07598340000000001 0  0.0860223 0.1375 0  0.0794526 0.191089 0  0.285228 0.140397 0  0.298655 0.148737 0  0.31875 0.1 0  0.327335 0.15374 0  0.296875 0.1 0  0.312289 0.155283 0  0.313348 0.135607 0  0.321802 0.173916 0  0.298433 0.134116 0  0.112124 0.2625 0  0.127526 0.259083 0  0.121875 0.3 0  0.0682687 0.241503 0  0.1 0.2875 0  0.117762 0.28125 0  0.107813 0.3 0  0.103906 0.313849 0  0.0778409 0.28125 0  0.1375 0.41 0  0.0862762 0.29375 0  0.08886860000000001 0.24375 0  0.307812 0.338778 0  0.307812 0.292227 0  0.33216 0.279164 0  0.387888 0.266414 0  0.264063 0.31948 0  0.110937 0.07598340000000001 0  0.242188 0.07598340000000001 0  0.319914 0.11839 0  0.340625 0.1 0  0.334448 0.133793 0  0.329687 0.108539 0  0.346259 0.118491 0  0.360334 0.173636 0  0.327539 0.205033 0  0.132812 0.288712 0  0.362436 0.278836 0  0.368105 0.259418 0  0.4125 0.41 0  0.329687 0.324017 0  0.329687 0.292306 0  0.285938 0.318952 0  0.417187 0.338778 0  0.324481 0.14148 0  0.351562 0.106771 0  0.40625 0.1 0  0.341028 0.168342 0  0.319221 0.190479 0  0.335292 0.184501 0  0.305563 0.20794 0  0.220313 0.31948 0  0.132812 0.332772 0  0.0865876 0.311259 0  0.0598995 0.302453 0  0.0906541 0.343255 0  0.353543 0.255837 0  0.36574 0.237633 0  0.405007 0.254279 0  0.275795 0.352123 0  0.4125 0 0  0.35493 0.137394 0  0.366563 0.120618 0  0.35917 0.205246 0  0.198438 0.318952 0  0.0626109 0.263892 0  0.40625 0.3 0  0.354809 0.155936 0  0.386512 0.146872 0  0.373101 0.159939 0  0.384375 0.1 0  0.343394 0.19929 0  0.350682 0.185683 0  0.368101 0.189748 0  0.344016 0.221511 0  0.391108 0.213329 0  0.376279 0.204783 0  0.398843 0.182768 0  0.375804 0.222746 0  0.390665 0.196958 0  0.394004 0.23518 0  0.359883 0.222828 0  0.419908 0.204359 0  0.404243 0.204783 0  0.412615 0.224526 0  0.20625 0.41 0  0.165625 0.325257 0  0.0347982 0.244954 0  0.379558 0.247154 0  0.34165 0.147603 0  0.372264 0.136992 0  0.388988 0.121989 0  0.373437 0.108554 0  0.351562 0.31948 0  0.391367 0.16527 0  0.399572 0.223324 0  0.452011 0.227371 0  0.40877 0.239392 0  0.431491 0.237337 0  0.421224 0.250459 0  0.449619 0.262098 0  0.418865 0.276779 0  0.437063 0.252274 0  0.415673 0.263227 0  0.430988 0.266772 0  0.402767 0.273419 0  0.452967 0.244883 0  0.428125 0.3 0  0.408502 0.286186 0  0.384375 0.3 0  0.392267 0.285807 0  0.465927 0.219339 0  0.43489 0.283846 0  0.376424 0.286289 0  0.625 0.3 0  0.473533 0.205186 0  0.461713 0.255517 0  0.5375 0.3 0  0.465725 0.235405 0  0.44631 0.201425 0  0.471875 0.3 0  0.494307 0.227729 0  0.459448 0.206736 0  0.462294 0.180792 0  0.478933 0.227536 0  0.486793 0.21381 0  0.486322 0.251373 0  0.50065 0.215318 0  0.54005 0.175389 0  0.474633 0.189893 0  0.512916 0.208697 0  0.49531 0.199967 0  0.475889 0.175275 0  0.625 0.1 0  0.459311 0.153933 0  0.513645 0.242704 0  0.392892 0.248539 0  0.374815 0.271913 0  0.365974 0.14871 0  0.395312 0.109184 0  0.417061 0.123981 0  0.483196 0.277003 0  0.381967 0.179632 0  0.429898 0.219374 0  0.433473 0.206165 0  0.43149 0.181038 0  0.444208 0.215487 0  0.472985 0.247309 0  0.49375 0.3 0  0.475579 0.262714 0  0.49916 0.274293 0  0.501175 0.184809 0  0.514164 0.225681 0  0.543648 0.214977 0  0.5341630000000001 0.23481 0  0.527396 0.216171 0  0.5375 0.1 0  0.534548 0.202315 0  0.561545 0.192513 0  0.5494289999999999 0.201221 0  0.570923 0.218346 0  0.412582 0.149833 0  0.489327 0.264745 0  0.502439 0.254775 0  0.462391 0.271166 0  0.496775 0.241732 0  0.5294410000000001 0.268606 0  0.482812 0.291099 0  0.46879 0.285038 0  0.452663 0.284065 0  0.51789 0.257882 0  0.53408 0.252026 0  0.560142 0.243543 0  0.545708 0.243474 0  0.547532 0.229019 0  0.55282 0.265323 0  0.398971 0.153424 0  0.400349 0.135684 0  0.410135 0.168145 0  0.428823 0.161323 0  0.415266 0.183779 0  0.329687 0.0810483 0  0.395312 0.0612217 0  0.373437 0.318952 0  0.439062 0.324017 0  0.561816 0.229354 0  0.585029 0.239287 0  0.431827 0.139854 0  0.446796 0.168929 0  0.351562 0.07598340000000001 0  0.395313 0.318944 0  0.54337 0.150762 0  0.460937 0.31948 0  0.418412 0.137529 0  0.428125 0.1 0  0.442783 0.152332 0  0.450742 0.134294 0  0.373437 0.0805201 0  0.384383 0.342558 0  0.482812 0.318952 0  0.429239 0.127457 0  0.444274 0.117405 0  0.426548 0.113815 0  0.49375 0.1 0  0.488954 0.113984 0  0.457973 0.121842 0  0.471621 0.137346 0  0.515625 0.325257 0  0.48125 0.41 0  0.417187 0.07598340000000001 0  0.496363 0.126778 0  0.479043 0.155715 0  0.439062 0.0805201 0  0.481795 0.126919 0  0.471875 0.1 0  0.489227 0.142159 0  0.515625 0.1 0  0.520062 0.147117 0  0.501244 0.161791 0  0.505431 0.112984 0  0.505344 0.14029 0  0.526563 0.119081 0  0.5181750000000001 0.131908 0  0.539868 0.136937 0  0.460937 0.108383 0  0.474242 0.114415 0  0.460937 0.0810483 0  0.487841 0.167168 0  0.526563 0.0612217 0  0.526563 0.106406 0  0.537619 0.112743 0  0.58125 0.1 0  0.559375 0.1 0  0.482812 0.08105569999999999 0  0.471883 0.0587655 0  0.570312 0.129396 0  0.548437 0.07598340000000001 0  0.504687 0.08105569999999999 0  0.49375 0.0470127 0  0.570312 0.112663 0  0.592798 0.12103 0  0.553986 0.12103 0  0.570312 0.0805201 0  0.48125 0 0  0.114787 0.2 0  0.160769 0.284765 0  0.175816 0.288361 0  0.162602 0.116048 0  0.154687 0.07598340000000001 0  0.176562 0.0805201 0  0.0598995 0.147547 0  0.307812 0.109924 0  0.291279 0.117157 0  0.278491 0.112989 0  0.285937 0.07598340000000001 0  0.307812 0.0805201 0  0.296928 0.196743 0  0.318141 0.218507 0  0.330208 0.227509 0  0.301397 0.225668 0  0.302706 0.241401 0  0.292574 0.21424 0  0.282762 0.230935 0  0.284351 0.244775 0  0.269553 0.23261 0  0.278572 0.217242 0  0.226924 0.342606 0  0.446928 0.185396 0  0.515625 0.3 0  0.504687 0.288879 0  0.515256 0.276534 0  0.529479 0.285328 0  0.58125 0.3 0  0.541969 0.272936 0  0.559375 0.3 0  0.556796 0.282529 0  0.543473 0.287206 0  0.581429 0.267774 0  0.566728 0.271171 0  0.570869 0.255585 0  0.577404 0.283865 0  0.603125 0.3 0  0.597531 0.28035 0  0.570312 0.338778 0  0.592188 0.292492 0  0.603513 0.256094 0  0.614063 0.286265 0  0.610329 0.27064 0  0.632708 0.251285 0  0.657223 0.261594 0  0.618789 0.257807 0  0.614188 0.22987 0  0.630935 0.265614 
[...]
<PointData  Scalars="p"> 
	<DataArray  type="Float64"  Name="p"  format="ascii">
0.0007010399118629383 0.0006750555405524927 -1.6022534536444265e-07 -9.274396647404635e-08 0.000760222703486903 0.0007528205044092952 6.017920242438422e-05 5.570598956929831e-05 -0.00026461625340505954 -0.0002786249370317399 -0.00033310829879711854 -0.00033688791576427926 -0.0003301148098978703 -0.0004056468297131672 -0.00034912434761107477 -0.0001294967914148672 -0.00029190197911976737 -0.0004740295813551177 -0.0003182697202046703 1.3425491966812787e-05 0.0005181628261964434 0.001160242883666782 0.0016811850987686924 0.002009686430391364 0.002004316738839074 0.0016633693538028447 0.001144819979231607 0.000504576241836185 -9.074191026611811e-05 -0.0003283572617305303 -0.0004438019997235948 -0.0002993962692142889 -0.00012758379090768205 -0.00034665567749514405 -0.000403933725441452 -0.00032448991015206414 -0.00033304112178022177 -0.00033222012998579924 -0.00027950399490133407 8.9874662917342e-05 8.186580601160009e-05 0.0014013376024468187 -0.00015098179287511957 -0.00015045897691307378 -7.39211990922908e-05 -7.978838421601441e-05 -8.636557198476724e-05 0.00017240542683219067 -5.7667554883234306e-05 0.00099759110628974 3.9558193117817375e-05 4.285798413055189e-05 0.00019574335927951 0.0010704688872463148 0.0002699895352620253 0.001070293420430615 0.00028098238222460005 0.0018200166119153299 -0.00022557233307140032 -0.000224321798921007 -0.0002827973779226524 -0.0002852283244271578 0.0017701393864825122 0.0006037123294040607 0.0009988566716301742 1.1775111949591942e-06 -0.0003485244416123415 0.0017837593995777118 0.0010078602022205701 1.8777310110642904e-05 -0.00034794383779352333 4.4225536578842926e-05 -0.00020065765685940842 4.2551910988647006e-05 -0.00020233668861909868 -0.00027979230110630976 -0.00019442350711921423 0.0001221938165386071 0.0005039794716073787 -0.0002028815516334934 -0.00017370080014776884 -0.00031267319441939683 -0.0001761788087247442 -0.000313568867940582 -0.0002797624294341878 9.592340771817886e-05 0.0014404412706238495 -0.00016217980964132594 -0.00027204566965676396 -0.00016142617237272248 -0.0002707673867698311 -0.00027266020124306657 0.0005939713555411457 0.00012392823400427175 -0.00017833271587398334 0.00015268470439698545 -0.00016837943057829757 -0.00011440979549695404 -0.00011501530815232668 0.0014258334673799835 0.00127990170550966 0.0012790737717057624 0.0008218361692588738 0.001300243347240166 0.0013021243713003023 -0.0001687477330078471 -0.00024037395337054768 -0.00024288065193622067 -0.000276760282855459 8.722734248204495e-05 -0.0002075639539560362 7.922528680219178e-05 -0.00021373414936154894 -3.978703524490824e-05 0.00014038871013287842 -2.6740331147211806e-05 0.00014463824723537938 0.001606721605653769 0.0011328991431735897 0.0005492488357928649 0.001605378673826755 0.0011388521124790008 -0.00021704181727432172 -0.00022506066312499165 -0.00027436750270651267 -5.778924872292024e-05 0.0005928608254647778 -3.8598818739900765e-05 -0.00023374921701312614 -0.0002377550888528385 -0.000265709667381426 0.0004435772573589836 0.0007762813735402523 -0.00023090137341717591 -0.00021909185977399 -0.00016917374956356267 0.0004646328839594753 0.000406982627957614 0.000755167373242317 0.0006127089321101482 0.0007015761388196224 0.0009092440892546793 -0.0001028695920025018 -9.283862773366153e-05 0.0008791556152622444 0.000845238085195726 0.0009691984947546975 0.0007034807672401831 0.0007909282890175056 0.0007419383758028014 -2.567102270411357e-06 -0.00020364347718154578 2.6491774476024874e-05 -6.917842118261419e-07 0.0006152806499549137 0.0004052998393269928 4.620749496130372e-05 0.0013439162728725968 0.001172628590098372 0.0011340439708915132 0.0010796626391233694 0.0009312738021946699 0.0007893777506144831 0.0013464604630117666 0.0011940562168213558 0.0007582168556249544 0.001154419734575336 0.001089489378708034 0.0012500587579206742 -0.0002714257603661797 -0.0002669157402917781 0.0003547880744194969 0.0005892048143047443 0.0008787945362162994 -0.00017215912821388354 -0.0001451455224012008 -0.00027335973286688424 -0.00013966582765583333 -0.0002526363433226004 -0.00018963555130257722 -0.0002547189554714673 -0.000250226558468635 -0.00026132874305887513 -0.00022075023611959507 -0.00025565330147832635 -0.00025041533542726445 -0.00025473305127153844 -0.00023730131004523188 -0.00024462960541124805 -0.0001780027870120491 -0.00022820331135856213 -0.00018974756283921576 -0.00026714608543110203 0.00014333203298065567 0.000971565120724821 0.000610380354875445 0.00013624644560608938 0.00034511342468869824 0.0009518707437839569 0.0012121001074705197 -0.0002612398933823199 -0.00026356003985484255 -0.00014220742507129927 -0.0002569411910379551 -0.0001459385910932119 -0.0002624730614896355 -0.00025469613636527975 -0.00025891601781443524 -0.0002571525869831304 0.0009572448007438273 0.0009149833984453339 0.0007004029636561692 0.001040274923014271 0.0008190221884986658 0.0008010285601835607 0.000731843510433848 0.0006980785130283282 0.000848323057706946 0.000587491908883887 0.0007950431679006261 0.0010983251276475024 1.991573562808163e-05 -0.00018435478949388465 -0.00023156058032898835 -0.0002249261878876143 4.737203672864765e-05 0.0006842832183864692 0.00015034328721518848 -0.00023047349838059694 -0.00017489267549893216 -0.0002449024904513838 -0.00019590801146933127 -0.00022432762151754405 -0.00024355822975810499 -0.0002561607000965282 0.0006827024619453294 -0.0002265356936572808 -0.0002366313730251886 -5.373370445601681e-05 -6.238959250696058e-05 -0.00020177091144388937 -1.728157078571381e-05 -9.783947559172872e-05 -0.00025345449021053657 -0.00018910025339023695 -0.00016726728840897644 -0.0002520275635524323 -0.0002595440669169314 -0.00025338563994101214 -0.00026489294986576837 0.0001852194242248004 0.0006047163696934992 0.0007340036580493807 0.0007736628002946628 0.0006614121499409535 -0.000245525633428484 -0.00024108962127706383 -0.00021822037632911688 0.00014573727177305185 -8.053596050959669e-05 -0.00024219110942243292 -0.00021935967132080954 -0.00024281025037974806 0.00031832316673740765 0.0009257364862840766 -0.00016658296401602353 -0.00024628849367001166 -0.00023033566630170066 -0.00023802145847659598 -0.00017237900868714414 -0.00024972349674320536 -0.00024699383666040023 -0.00023900056110829718 -0.00024988556092784664 -0.00022686321803757546 -0.00023461998488654296 -0.00022288686535771164 -0.00023564046594467104 -0.000226936962031536 -0.0002263741544519258 -0.00024318401846985392 -0.00020829619856209468 -0.0002187051937459866 -0.00021432390518114127 0.00041674733987125064 0.0004700888967298586 0.0009526644421168955 -0.00023437720977961658 -0.00025057323879803915 -0.00023280787247852714 -0.000212197765095712 -0.00019758209378734987 -0.00010406623361286678 -0.0002283296754217265 -0.00022249816560833318 -0.0001848109093952408 -0.00021755003082552245 -0.00020172614146876102 -0.00020849903229459038 -0.00018452040423943078 -0.0001970710205623686 -0.00019631830749036356 -0.0002085632110519455 -0.00019642753944469282 -0.0002108204926799849 -0.0001842701825345598 -0.00016067751573581527 -0.00019307733252962563 -0.00017758024733256024 -0.0001997498829745458 -0.00017193577634506252 -0.0001807187647618152 -0.00020799573731027784 -1.825753876373049e-05 -0.0001643071949978352 -0.00017493783180806756 -8.669845853338325e-05 -0.00017305996697706484 -0.0001883039577867584 -0.000136561330901573 -0.00014508775139460684 -0.0001769274715522547 -0.00017557237646284986 -0.0001604996856863991 -0.0001517001409482541 -0.00015319313358623662 -0.00013764578039745124 -9.539335884917002e-05 -0.00016351874573230688 -0.00012434460319907852 -0.00014274956507943638 -0.000163494731805683 -1.825424871716978e-05 -0.00017901616815271676 -0.000125589364824525 -0.00022640635747854805 -0.0002232316048553752 -0.0002398608033866046 -0.00018872946630296757 -0.00019959396778354108 -0.00014702701323442664 -0.0002326974145583091 -0.00020190546318821895 -0.00019841071199524116 -0.00020100286561598559 -0.00019048283307006664 -0.00016633816083493996 -0.00011898189939323616 -0.00016078117265467517 -0.00013466935233343407 -0.0001373403005490072 -0.00012424142694936226 -9.093548428634597e-05 -0.00010309428810673834 -0.0001090747366537283 -8.648633669621171e-05 -0.00010047664356526783 -7.021312405012007e-05 -8.382729529269716e-05 -6.094640781466825e-05 -0.00021442616914664408 -0.00014723868112560088 -0.00013643204824568576 -0.00016965807250523252 -0.00014322897875458247 -0.00010642906434171565 -0.0001368928145099733 -0.00015385736174552844 -0.00016693875831789843 -0.0001202423315126733 -0.00010323825538970289 -7.490848055932928e-05 -9.095057397560507e-05 -8.782847822487119e-05 -8.227955715783096e-05 -0.00022325693283092567 -0.00021858727361475343 -0.00021710622505815506 -0.00020418631721254597 -0.00021235937833423676 -9.560643220589199e-05 -9.188090704799262e-05 -0.00012524040693098044 -0.00011731024285866453 -7.20338075066254e-05 -4.754791646193659e-05 -0.00019861075382936178 -0.0001897737513232097 -9.272913779201541e-05 -0.00012336174822185454 -9.208023173983803e-05 -0.00011843712577208604 -0.00020576884087186178 -0.00016229983646030038 -0.00019265708183469833 -0.00018163781005139492 -0.00012764165882634784 -7.040838662881213e-05 -0.00011478090140345727 -0.0001926911057613024 -0.00017229982794339998 -0.0001858388895310293 -0.00012262125389207151 -0.0001370756839486666 -0.00016872797859384945 -0.00016409469107754994 -8.40099691329584e-05 -8.452391855679924e-05 -0.0001206689430707596 -0.00013579833804067332 -0.0001606532408495647 -0.00013181478963978927 -0.0001510015000527174 -0.00013643115674020275 -0.00014875370676911212 -0.00010388274491310587 -0.00011748236218003149 -0.0001385356576429697 -0.00012007247566417157 -0.00013200483067086368 -0.00010457570324639278 -0.0001170881022881477 -9.437138343727013e-05 -0.0001547231077871469 -0.00014756109174915463 -0.00012728503748263005 -0.0001518385175169769 -7.953048128211161e-05 -9.88359750462795e-05 -9.057677202976482e-05 -4.980653742204093e-05 -6.911200805411514e-05 -0.00011108684057702232 -0.00010712663681334704 -6.181451333884595e-05 -6.724949885384172e-05 -0.00010253734332982152 -9.119286429989194e-05 -5.9625742316868956e-05 -4.118557565600674e-05 -7.805756759991314e-05 -6.0115107813459715e-05 -0.00010236393060533118 0.001570769347013679 0.00046722813101236695 0.00028916349785370634 0.0004296758130487561 0.0005437328479084493 0.00043393492801203025 0.0009761446961277711 -0.00019030548390364671 -0.00021512024282306768 -0.00015606181016059544 9.142330475498671e-06 -5.1147927288343736e-05 -0.00026822968242471676 -0.0002598221870188054 -0.0002553992928049928 -0.0002662704057688239 -0.00026325386320865453 -0.0002698433019821533 -0.0002741373609302118 -0.00026892564370024165 -0.0002709001977445982 -0.00027802030584723125 0.0002731645726131836 -0.0001884162149913019 -0.00010473952003715102 -0.0001216139210393184 -0.00011692501862004502 -0.00010034981098899034 -5.152717362944224e-05 -9.186803005024388e-05 -6.793734771242156e-05 -7.550856413493504e-05 -8.592205490335928e-05 -5.2830024088485154e-05 -6.713860668341902e-05 -6.389785630444947e-05 -5.6714397814472315e-05 -3.577970327673558e-05 -3.7295289731055216e-05 -5.535254741739053e-05 -4.380574074360319e-05 -3.0230549258817404e-05 -2.4514030776321937e-05 -2.563250193000602e-05 -2.077164757988796e-06 1.584266343692482e-05 -1.5708545891660234e-05 -1.6695418025663938e-05 -6.14812842767282e-06 -1.2175516651915409e-05 9.461122982778522e-06 8.948787432914076e-06 3.0903062952833246e-05 -9.757479366521179e-06 3.798861309859926e-06 -5.190947013127423e-06 1.4846551256045407e-05 -7.294034029578676e-05 -4.049942376272124e-05 -3.932200356006256e-05 -4.6222678343228586e-05 6.701192092458293e-06 4.2128085549490974e-05 -1.0591025489226699e-05 -3.196127249553361e-05 2.888851408161791e-05 2.0786485037118573e-05 3.2553289644898714e-05 2.117766079346444e-05 3.739987604313175e-05 3.5975263420507745e-05 2.459516658986113e-05 5.377678347478292e-05 1.1677368081383503e-05 2.0281971032364926e-05 4.6903585351283796e-05 2.8346698463571607e-05 8.922225121858503e-05 2.8294306383473358e-05 5.2830664516655793e-05 4.459639959547642e-05 6.994384009391252e-05 5.075494269924686e-05 6.067642418756144e-05 4.319857637866781e-05 4.7423006702612494e-05 4.157600952468478e-05 6.216165548031047e-05 5.981528011923886e-05 5.3481105215476236e-05 5.007120467605022e-05 5.4623674289757814e-05 7.257794142235345e-05 8.551777208332063e-05 6.398031209264163e-05 7.289388923681344e-05 6.515225434580614e-05 7.574121618626863e-05 7.333588622715227e-05 8.195216850387199e-05 5.6409642902943e-05 5.999424773579866e-05 6.691439465757027e-05 6.863331400181431e-05 7.603902867087888e-05 6.857649180800512e-05 6.878706875582218e-05 5.389631045605306e-05 3.441042926171607e-05 3.0401352298361442e-05 -1.5960318832508605e-05 -3.608227743182243e-06 2.4479049600058795e-05 6.423726519453181e-05 7.968875404953768e-05 7.843557552025589e-05 8.999706003819464e-05 4.4023953698706516e-05 -5.602165405258265e-06 1.8092063422834613e-05 1.5862330434711702e-05 7.480983842479565e-05 8.058507754729042e-05 8.634958955775104e-05 8.388291706603767e-05 4.097361506413937e-05 -1.6232035878531113e-05 2.3621989322055488e-05 7.51089713545318e-05 8.617125236075176e-05 7.693939038196333e-05 8.647577010891002e-05 9.010569045860772e-05 9.341072771713964e-05 9.234364903238042e-05 9.563785957524435e-05 9.087501182044989e-05 8.710532512880482e-05 7.070815617684843e-05 6.55973370786335e-05 6.439737024754807e-05 5.561493735342138e-05 2.744560602254005e-05 8.010075500249246e-05 8.224005576776527e-05 4.528941706839555e-05 7.223350072067052e-05 4.8391450532293606e-05 3.857396119170399e-05 5.6315244427636624e-05 2.492641572608393e-05 3.511649782335046e-05 3.683929995684089e-05 6.66356816982587e-05 5.999723347331065e-05 4.9526531983989175e-05 5.3598563183631834e-05 5.473023279931624e-05 4.574011873111277e-05 6.954183095573703e-06 4.539140599768587e-05 2.4050136603275968e-05 4.357727150608362e-05 3.715334838901488e-05 2.6835781205367766e-05 2.553833309065048e-05 3.4330900199607956e-05 -3.112698114022992e-07 1.0579053640902182e-05 1.404819458552068e-05 4.112984305350572e-06 5.292537468219217e-06 -2.224019173672746e-05 -7.277506181706839e-06 -1.5758868009437873e-05 -1.3877915465223526e-05 -4.3652801557141457e-05 -1.9932684968463326e-05 -2.9718306464535856e-05 -4.707266729349313e-05 -2.9436123172486954e-05 -1.2549448450691252e-05 -3.6936566877181294e-06 -4.476715247378997e-05 -1.5005410137161437e-05 6.184004614026921e-06 -3.193733363460859e-05 -3.411972975544056e-05 -2.7520545354884614e-05 -6.136819868254517e-05 5.083936699460326e-06 1.6320193230184105e-05 3.488030789458969e-05 1.851708992928475e-05 3.659557692475133e-05 -5.172038167118082e-06 -4.2332114477186025e-05 -4.356861384760107e-05 -2.5480166127939296e-05 -6.113583156890423e-05 -7.711879776444085e-05 -7.812914782469005e-05 -7.723754929806795e-05 1.7696583510658145e-05 1.2538176789827724e-05 2.689512165094872e-05 -9.253100866135383e-06 5.086391295006382e-05 -8.007673042527645e-06 -2.9694331180786612e-05 -3.864481340083076e-05 -6.251571683354233e-05 -1.3204157912123008e-05 3.643059607858987e-05 -3.962231212735723e-05 4.610368991318006e-06 5.144628572143596e-05 4.0576260712430864e-05 2.3028636376423213e-06 1.8773033172898606e-05 4.4453202078630816e-05 5.168454759089404e-05 5.015515880082938e-05 6.640227429290311e-05 1.943089603997797e-05 7.206499676204399e-05 3.3389974288408436e-05 7.251896826761643e-05 6.181366418603432e-05 8.238472649557334e-05 4.284780911789853e-05 5.4662398890721126e-05 6.365484300390072e-05 8.631366296332592e-05 7.70587856055929e-05 7.335226325759212e-05 7.932574019961074e-05 6.942524820324502e-05 8.279070942476414e-05 8.648979097795317e-05 7.997218124777151e-05 8.534526320330544e-05 7.418165636784389e-05 6.089497926089009e-05 6.2463786088434e-05 2.9564003618803526e-05 3.0242950117004786e-05 -7.598144746412163e-05 -0.0001173930872811048 -0.0001232065313487517 -0.00012400066397480822 -0.00010468043327789493 -0.00010957976887096634 -9.773587070633251e-05 -8.335338998256261e-05 -8.930403309815995e-05 -0.00010355474388125776 0.0003188709670390759 0.0004941992930608454 -2.118864547247376e-05 0.00018836499988965965 -3.076634286131547e-05 -3.601604906455584e-05 4.3936423958108075e-05 6.738637216659119e-05 -4.3162119279617255e-05 1.7846860658845138e-05 -6.305451180560131e-06 1.1053745857383053e-05 8.797159653489002e-05 7.801455537424357e-07 1.4722548933431392e-05 -3.5830859516403053e-06 1.7188593124180354e-05 2.7441114788125098e-05 -3.320844905234023e-05 -4.7189069238250894e-05 -6.230428868069897e-05 -7.516028116670952e-05 -5.572648043015226e-05 2.8945321230902912e-05 4.800424243063163e-05 -8.339509565820716e-05 0.00030417765828615897 -2.187810301070126e-05 -4.919644991776032e-05 0.0002940248066870875 -3.877530941329052e-05 0.0008242173319405808 0.0007031852120350413 -6.203593682191323e-05 5.869786791589534e-05 4.031740788446829e-05 9.523588391831558e-05 -6.256345433376964e-05 -3.504311767638704e-05 2.9885773569053645e-05 -1.9083246882879066e-05 8.597345106382164e-05 2.973072670231182e-05 -8.003505807130638e-05 0.00044641480181842547 0.0006886903274481133 0.0006616751227387384 0.0006785792676706819 -3.0388462876511308e-05 1.4179356038473e-05 0.0006625798802672208 0.0006620000859630309 0.00010345843900397493 0.0009085434557748514 -8.096135752287659e-05 -5.2019533997386936e-05 -1.513579390086229e-05 0.0001191965501206761 0.0005369553348438952 0.0007251639613270396 -5.6361271123145186e-05 4.681796603344389e-06 0.0002143246739114618 0.0006115548775783397 -9.300923220648083e-07 0.000834428062189344 0.00032467938597765666 0.0002956138867336002 0.0002182252001894884 0.0007163599987187423 -1.0865100301537023e-05 -2.404161005017416e-05 2.9708972452933582e-05 1.5632596973762414e-05 3.685129245482995e-06 -3.295907992259668e-05 6.551242058878853e-05 6.212863208601889e-05 8.214248028573614e-05 7.375965474337102e-05 6.993607272531033e-05 0.00022654182650606072 0.0006659851317608262 -1.8563606439876928e-05 -2.173830658412755e-05 0.0006356199985574386 0.000830422257281922 9.127753613310493e-05 7.87005826546022e-05 -6.694199571373802e-05 -6.793756145709234e-05 0.0010159547736510704 0.0007109426129912494 7.437844314134398e-05 0.0009171763701538115 7.42596954442851e-05 9.718877923402055e-05 0.000737794575938771 6.957023929771074e-05 5.798059096459814e-05 8.965525072430983e-05 0.0006970797475047238 9.645766335885301e-05 0.0007022159686046742 0.0006969977859589056 4.9528129132611834e-05 8.872059320910549e-05 9.567895423158841e-05 9.20358396087178e-05 8.717751885280718e-05 9.832466319719883e-05 8.112821600850603e-05 9.847881590501376e-05 8.399557724814307e-05 9.7828791025946e-05 9.779195527044559e-05 9.398466374723686e-05 9.674672154254437e-05 9.735450770921422e-05 9.702920734803964e-05 8.738063380056466e-05 7.947927047516279e-05 8.659593224317287e-05 8.413943570778313e-05 9.156179734376342e-05 8.670614731146667e-05 -4.9043458641399596e-05 4.841916432365472e-05 6.436207796569884e-05 5.032287707917067e-05 5.7171326043736835e-05 4.766072675829193e-05 6.768372039074605e-05 5.988381509048719e-05 8.191239250904959e-05 6.862043267682527e-05 9.179073630855319e-05 2.963938405326652e-05 2.606511553142096e-05 0.0005035272957806185 0.0006600810388885739 0.0006206991730305612 0.0006831734554530568 4.730269093227862e-05 -4.965534267082613e-06 -3.0808530867183384e-05 0.0006819517085959444 0.0005288004685798869 2.9390845247084928e-05 3.0103493435832124e-06 0.0006442716305807743 -7.557933269175395e-05 0.0010137500641994395 0.000982016148018401 6.573753709762747e-05 5.9539652836861305e-05 4.1001611991481434e-05 4.8716462354482255e-05 9.838383619439709e-05 9.740884924071494e-05 9.26024577264662e-05 9.63610746390747e-05 8.863670090642635e-05 9.125220868309882e-05 9.309421510346359e-05 9.4422611477752e-05 9.393801021064584e-05 8.451607508947807e-05 9.254519703846192e-05 9.237784713350175e-05 9.361433139617244e-05 9.870857042120009e-05 8.236081489644793e-05 9.499687652726059e