<?xml version="1.0"?>
<VTKFile type="UnstructuredGrid"  version="0.1"  >
<UnstructuredGrid>
<Piece  NumberOfPoints="1289" NumberOfCells="2413">
<Points>
<DataArray  type="Float64"  NumberOfComponents="3"  format="ascii">0 0 0  0 0.41 0  2.2 0.41 0  2.2 0 0  0.1 0.1 0  0.1 0.3 0  0.8 0.3 0  0.8 0.1 0  0.25 0.2 0  0.248976 0.210065 0  0.245948 0.219718 0  0.241038 0.228563 0  0.234448 0.23624 0  0.226448 0.242432 0  0.217365 0.246888 0  0.207571 0.249423 0  0.197468 0.249936 0  0.187467 0.248404 0  0.17798 0.24489 0  0.169395 0.239539 0  0.162062 0.232569 0  0.156283 0.224265 0  0.152293 0.214968 0  0.150257 0.205058 0  0.150257 0.194942 0  0.152293 0.185032 0  0.156283 0.175735 0  0.162062 0.167431 0  0.169395 0.160461 0  0.17798 0.15511 0  0.187467 0.151596 0  0.197468 0.150064 0  0.207571 0.150577 0  0.217365 0.153112 0  0.226448 0.157568 0  0.234448 0.16376 0  0.241038 0.171437 0  0.245948 0.180282 0  0.248976 0.189935 0  1.1 0 0  1.1 0.41 0  0.1 0.2 0  0.45 0.1 0  0.45 0.3 0  0.55 0 0  0.275 0.1 0  0.275 0.3 0  0.275 0 0  0.55 0.41 0  0 0.205 0  0.825 0 0  0.825 0.41 0  0.275 0.41 0  0.1 0.15 0  0.1875 0.1 0  0.1 0.25 0  0.1875 0.3 0  0.132322 0.2 0  0.241426 0.253518 0  0.241426 0.146482 0  0.264574 0.17974 0  0.264574 0.22026 0  0.138434 0.187348 0  0.153372 0.150948 0  0.148413 0.164094 0  0.176495 0.136535 0  0.22768 0.143571 0  0.138434 0.212652 0  0.148413 0.235906 0  0.176495 0.263465 0  0.22768 0.256429 0  0.23125 0.3 0  0.24769 0.24094 0  0.23125 0.1 0  0.24769 0.15906 0  0.26253 0.193641 0  0.190482 0.137872 0  0.166753 0.146661 0  0.157737 0.244461 0  0.190482 0.262128 0  0.203107 0.261264 0  0.253635 0.22977 0  0.203107 0.138736 0  0.253635 0.17023 0  0.261028 0.206206 0  0.167707 0.251809 0  0.143629 0.224191 0  0.215302 0.2591 0  0.270465 0.245894 0  0.215302 0.1409 0  0.270465 0.154106 0  0.284052 0.202587 0  0.14375 0.3 0  0.209375 0.3 0  0.225966 0.278501 0  0.209375 0.1 0  0.225966 0.121499 0  0.211613 0.273759 0  0.211613 0.126241 0  0.143629 0.175809 0  0.1 0.175 0  0.133484 0.164832 0  0.144491 0.249539 0  0.1 0.225 0  0.133484 0.235168 0  0.3625 0.3 0  0.25691 0.253381 0  0.25691 0.146619 0  0.277205 0.188698 0  0.184724 0.275712 0  0.237372 0.268285 0  0.184724 0.124288 0  0.237372 0.131715 0  0.197578 0.273149 0  0.193656 0.286994 0  0.197578 0.126851 0  0.193656 0.113006 0  0.122953 0.187671 0  0.118362 0.153758 0  0.155372 0.258107 0  0.122953 0.212329 0  0.118362 0.246242 0  0.276394 0.27264 0  0.276394 0.12736 0  0.280965 0.170013 0  0.253125 0.3 0  0.14375 0.1 0  0.253125 0.1 0  0.269489 0.26014 0  0.269489 0.13986 0  0.303639 0.184297 0  0.165625 0.3 0  0.134742 0.273113 0  0.257831 0.274737 0  0.255279 0.128499 0  0.3625 0.1 0  0.165625 0.1 0  0.162031 0.132368 0  0.134955 0.126405 0  0.149334 0.125568 0  0.142936 0.139597 0  0.12695 0.140259 0  0.242514 0.285501 0  0.242514 0.114499 0  0.1 0.125 0  0.117483 0.12555 0  0.11154 0.139776 0  0.121875 0.1 0  0.109143 0.1125 0  0.126805 0.114 0  0.220313 0.29129 0  0.351562 0.287369 0  0.207222 0.2866 0  0.220312 0.10871 0  0.1375 0 0  0.20625 0 0  0.207222 0.1134 0  0.11722 0.17118 0  0.1 0.1625 0  0.0778409 0.16875 0  0.0862762 0.15625 0  0 0.15375 0  0 0.1025 0  0.11722 0.22882 0  0.1 0.2375 0  0 0.3075 0  0.0862762 0.23125 0  0.0598995 0.222547 0  0.0860223 0.2125 0  0.289584 0.181469 0  0.300267 0.16446 0  0.163832 0.269071 0  0.149597 0.273325 0  0.1 0.275 0  0.268498 0.285953 0  0.31875 0.3 0  0.294154 0.254672 0  0.296875 0.3 0  0.293558 0.271845 0  0.285095 0.286799 0  0.324298 0.264316 0  0.307866 0.263745 0  0.317093 0.234901 0  0.315485 0.281219 0  0.316547 0.250625 0  0.344693 0.243731 0  0.331592 0.251147 0  0.35129 0.270663 0  0.338689 0.263683 0  0.340625 0.3 0  0.249849 0.264383 0  0.265097 0.11422 0  0.284688 0.156136 0  0.242188 0.324017 0  0.0856613 0.2625 0  0.132812 0.0612217 0  0.264062 0.0612217 0  0.198437 0.07598340000000001 0  0.0860223 0.1375 0  0.0794526 0.191089 0  0.285228 0.140397 0  0.298655 0.148737 0  0.31875 0.1 0  0.327335 0.15374 0  0.296875 0.1 0  0.312289 0.155283 0  0.313348 0.135607 0  0.321802 0.173916 0  0.298433 0.134116 0  0.112124 0.2625 0  0.127526 0.259083 0  0.121875 0.3 0  0.0682687 0.241503 0  0.1 0.2875 0  0.117762 0.28125 0  0.107813 0.3 0  0.103906 0.313849 0  0.0778409 0.28125 0  0.1375 0.41 0  0.0862762 0.29375 0  0.08886860000000001 0.24375 0  0.307812 0.338778 0  0.307812 0.292227 0  0.33216 0.279164 0  0.387888 0.266414 0  0.264063 0.31948 0  0.110937 0.07598340000000001 0  0.242188 0.07598340000000001 0  0.319914 0.11839 0  0.340625 0.1 0  0.334448 0.133793 0  0.329687 0.108539 0  0.346259 0.118491 0  0.360334 0.173636 0  0.327539 0.205033 0  0.132812 0.288712 0  0.362436 0.278836 0  0.368105 0.259418 0  0.4125 0.41 0  0.329687 0.324017 0  0.329687 0.292306 0  0.285938 0.318952 0  0.417187 0.338778 0  0.324481 0.14148 0  0.351562 0.106771 0  0.40625 0.1 0  0.341028 0.168342 0  0.319221 0.190479 0  0.335292 0.184501 0  0.305563 0.20794 0  0.220313 0.31948 0  0.132812 0.332772 0  0.0865876 0.311259 0  0.0598995 0.302453 0  0.0906541 0.343255 0  0.353543 0.255837 0  0.36574 0.237633 0  0.405007 0.254279 0  0.275795 0.352123 0  0.4125 0 0  0.35493 0.137394 0  0.366563 0.120618 0  0.35917 0.205246 0  0.198438 0.318952 0  0.0626109 0.263892 0  0.40625 0.3 0  0.354809 0.155936 0  0.386512 0.146872 0  0.373101 0.159939 0  0.384375 0.1 0  0.343394 0.19929 0  0.350682 0.185683 0  0.368101 0.189748 0  0.344016 0.221511 0  0.391108 0.213329 0  0.376279 0.204783 0  0.398843 0.182768 0  0.375804 0.222746 0  0.390665 0.196958 0  0.394004 0.23518 0  0.359883 0.222828 0  0.419908 0.204359 0  0.404243 0.204783 0  0.412615 0.224526 0  0.20625 0.41 0  0.165625 0.325257 0  0.0347982 0.244954 0  0.379558 0.247154 0  0.34165 0.147603 0  0.372264 0.136992 0  0.388988 0.121989 0  0.373437 0.108554 0  0.351562 0.31948 0  0.391367 0.16527 0  0.399572 0.223324 0  0.452011 0.227371 0  0.40877 0.239392 0  0.431491 0.237337 0  0.421224 0.250459 0  0.449619 0.262098 0  0.418865 0.276779 0  0.437063 0.252274 0  0.415673 0.263227 0  0.430988 0.266772 0  0.402767 0.273419 0  0.452967 0.244883 0  0.428125 0.3 0  0.408502 0.286186 0  0.384375 0.3 0  0.392267 0.285807 0  0.465927 0.219339 0  0.43489 0.283846 0  0.376424 0.286289 0  0.625 0.3 0  0.473533 0.205186 0  0.461713 0.255517 0  0.5375 0.3 0  0.465725 0.235405 0  0.44631 0.201425 0  0.471875 0.3 0  0.494307 0.227729 0  0.459448 0.206736 0  0.462294 0.180792 0  0.478933 0.227536 0  0.486793 0.21381 0  0.486322 0.251373 0  0.50065 0.215318 0  0.54005 0.175389 0  0.474633 0.189893 0  0.512916 0.208697 0  0.49531 0.199967 0  0.475889 0.175275 0  0.625 0.1 0  0.459311 0.153933 0  0.513645 0.242704 0  0.392892 0.248539 0  0.374815 0.271913 0  0.365974 0.14871 0  0.395312 0.109184 0  0.417061 0.123981 0  0.483196 0.277003 0  0.381967 0.179632 0  0.429898 0.219374 0  0.433473 0.206165 0  0.43149 0.181038 0  0.444208 0.215487 0  0.472985 0.247309 0  0.49375 0.3 0  0.475579 0.262714 0  0.49916 0.274293 0  0.501175 0.184809 0  0.514164 0.225681 0  0.543648 0.214977 0  0.5341630000000001 0.23481 0  0.527396 0.216171 0  0.5375 0.1 0  0.534548 0.202315 0  0.561545 0.192513 0  0.5494289999999999 0.201221 0  0.570923 0.218346 0  0.412582 0.149833 0  0.489327 0.264745 0  0.502439 0.254775 0  0.462391 0.271166 0  0.496775 0.241732 0  0.5294410000000001 0.268606 0  0.482812 0.291099 0  0.46879 0.285038 0  0.452663 0.284065 0  0.51789 0.257882 0  0.53408 0.252026 0  0.560142 0.243543 0  0.545708 0.243474 0  0.547532 0.229019 0  0.55282 0.265323 0  0.398971 0.153424 0  0.400349 0.135684 0  0.410135 0.168145 0  0.428823 0.161323 0  0.415266 0.183779 0  0.329687 0.0810483 0  0.395312 0.0612217 0  0.373437 0.318952 0  0.439062 0.324017 0  0.561816 0.229354 0  0.585029 0.239287 0  0.431827 0.139854 0  0.446796 0.168929 0  0.351562 0.07598340000000001 0  0.395313 0.318944 0  0.54337 0.150762 0  0.460937 0.31948 0  0.418412 0.137529 0  0.428125 0.1 0  0.442783 0.152332 0  0.450742 0.134294 0  0.373437 0.0805201 0  0.384383 0.342558 0  0.482812 0.318952 0  0.429239 0.127457 0  0.444274 0.117405 0  0.426548 0.113815 0  0.49375 0.1 0  0.488954 0.113984 0  0.457973 0.121842 0  0.471621 0.137346 0  0.515625 0.325257 0  0.48125 0.41 0  0.417187 0.07598340000000001 0  0.496363 0.126778 0  0.479043 0.155715 0  0.439062 0.0805201 0  0.481795 0.126919 0  0.471875 0.1 0  0.489227 0.142159 0  0.515625 0.1 0  0.520062 0.147117 0  0.501244 0.161791 0  0.505431 0.112984 0  0.505344 0.14029 0  0.526563 0.119081 0  0.5181750000000001 0.131908 0  0.539868 0.136937 0  0.460937 0.108383 0  0.474242 0.114415 0  0.460937 0.0810483 0  0.487841 0.167168 0  0.526563 0.0612217 0  0.526563 0.106406 0  0.537619 0.112743 0  0.58125 0.1 0  0.559375 0.1 0  0.482812 0.08105569999999999 0  0.471883 0.0587655 0  0.570312 0.129396 0  0.548437 0.07598340000000001 0  0.504687 0.08105569999999999 0  0.49375 0.0470127 0  0.570312 0.112663 0  0.592798 0.12103 0  0.553986 0.12103 0  0.570312 0.0805201 0  0.48125 0 0  0.114787 0.2 0  0.160769 0.284765 0  0.175816 0.288361 0  0.162602 0.116048 0  0.154687 0.07598340000000001 0  0.176562 0.0805201 0  0.0598995 0.147547 0  0.307812 0.109924 0  0.291279 0.117157 0  0.278491 0.112989 0  0.285937 0.07598340000000001 0  0.307812 0.0805201 0  0.296928 0.196743 0  0.318141 0.218507 0  0.330208 0.227509 0  0.301397 0.225668 0  0.302706 0.241401 0  0.292574 0.21424 0  0.282762 0.230935 0  0.284351 0.244775 0  0.269553 0.23261 0  0.278572 0.217242 0  0.226924 0.342606 0  0.446928 0.185396 0  0.515625 0.3 0  0.504687 0.288879 0  0.515256 0.276534 0  0.529479 0.285328 0  0.58125 0.3 0  0.541969 0.272936 0  0.559375 0.3 0  0.556796 0.282529 0  0.543473 0.287206 0  0.581429 0.267774 0  0.566728 0.271171 0  0.570869 0.255585 0  0.577404 0.283865 0  0.603125 0.3 0  0.597531 0.28035 0  0.570312 0.338778 0  0.592188 0.292492 0  0.603513 0.256094 0  0.614063 0.286265 0  0.610329 0.27064 0  0.632708 0.251285 0  0.657223 0.261594 0  0.618789 0.257807 0  0.614188 0.22987 0  0.630935 0.265614 
[...]
<PointData  Scalars="p"> 
	<DataArray  type="Float64"  Name="p"  format="ascii">
0.0007011594191067562 0.0006749741113537953 -9.255387395816757e-08 -1.1886207416633459e-07 0.0007603381710899294 0.0007527405220680355 5.919240977342979e-05 5.658180361178026e-05 -0.00026458342378623347 -0.00027863271619792677 -0.00033312496217058747 -0.0003368436716914752 -0.00033069858550782255 -0.0004083121508198093 -0.0003515978541786757 -0.00012931811988540175 -0.00029198695150032373 -0.000474214962102474 -0.00031849344460368334 1.3191531809458627e-05 0.0005179360232749255 0.0011600706246122153 0.0016810758535872137 0.0020096651260642423 0.002004381359257519 0.0016635178606247926 0.0011450253643607489 0.0005048261604407826 -9.047373853107442e-05 -0.00032813248782208836 -0.0004436314022783996 -0.00029932754030795647 -0.00012780637287503288 -0.00034366087805433435 -0.0004008346974752252 -0.000323810348746278 -0.0003330134596442113 -0.00033213915652163264 -0.0002794352280228331 8.619333908187592e-05 8.580532062157072e-05 0.001401357066454135 -0.00015073027553880191 -0.00015063797570066023 -7.403522922405364e-05 -7.961029138421781e-05 -8.648082903354896e-05 0.00017264780903218036 -5.737382540403848e-05 0.0009976060543043267 4.0345711585896165e-05 4.214707020731136e-05 0.00019557038975479384 0.0010705630613292963 0.0002701993526881314 0.0010702367587429817 0.000280816962214108 0.0018200363006920025 -0.00022550594721145237 -0.00022440724284660638 -0.0002827654802037884 -0.00028522790561553204 0.0017702258778998707 0.0006039063783196054 0.0009990428148519553 1.3703573400571441e-06 -0.00034695150884501047 0.0017837128402699394 0.0010077075930027195 1.860364619368347e-05 -0.00034923465974642207 4.403405924842268e-05 -0.00020065257035475887 4.2792380628682964e-05 -0.00020236432220510907 -0.00027975310159337585 -0.0001942596417924396 0.00012240964886772276 0.0005037898238905363 -0.00020304519379236462 -0.00017389070258469372 -0.00031268498237362275 -0.00017598218099124856 -0.00031350541925660383 -0.00027974724285570766 9.572529819708836e-05 0.001440325249172654 -0.0001625886740054784 -0.00027210127853350075 -0.00016096156592669753 -0.00027070154775200086 -0.0002726450895668153 0.0005938647446022699 0.00012370092435099884 -0.0001789569185569715 0.00015295927637708337 -0.00016762932625395222 -0.00011476164012294679 -0.00011461171940939507 0.0014259862898425195 0.0012799656570507822 0.001279203607571595 0.0008217036515569836 0.0013002163767476351 0.0013020308664541565 -0.0001688882326154982 -0.0002404785238675828 -0.0002427688331760452 -0.00027671736440228493 8.704580570781168e-05 -0.00020778070076623223 7.943670564830138e-05 -0.00021347574579508823 -4.002937120241102e-05 0.00014018403701164628 -2.6465102626584167e-05 0.0001448838017321489 0.0016067837238754996 0.001133007922119224 0.0005490977282212301 0.0016053556023724314 0.0011387790479255755 -0.00021717054918806006 -0.00022494937432908393 -0.00027429447890456305 -5.8019948362046454e-05 0.0005930046124346159 -3.832156013603396e-05 -0.00023382737922857902 -0.00023766338475064334 -0.0002656103204088992 0.00044344641530201 0.0007761795010308261 -0.00023110602188250857 -0.00021882993812897796 -0.0001688998388589414 0.00046480062453552754 0.00040715952286806236 0.0007553052977196718 0.00061286325899462 0.0007017384197756092 0.0009093743117767541 -0.00010296577999762825 -9.273649693712855e-05 0.0008792644721162001 0.0008453596287155626 0.000969309998303564 0.0007036085999332659 0.0007910471430796955 0.0007420684255717881 -2.9193830150276872e-06 -0.00020380639568082516 2.6219382427800745e-05 -2.599110665607789e-07 0.0006154124442748438 0.00040549066432156135 4.6528100828425754e-05 0.0013440012931200352 0.0011727097274832488 0.0011341059591485603 0.0010797406866177636 0.0009313436079085975 0.0007894839832041281 0.0013464126770773542 0.0011940139104196796 0.000758146995152144 0.001154393233137197 0.0010894817625048414 0.0012500602116965727 -0.00027134976246024484 -0.0002667524561762874 0.00035463447068165434 0.0005890783637014312 0.0008787224836769957 -0.0001723185440157411 -0.00014528612139211942 -0.0002735262962410695 -0.00013983830349246555 -0.00025281827876883975 -0.00018980202660350354 -0.0002549147048050133 -0.00025041027459218456 -0.00026146170767762467 -0.00022093838130416807 -0.0002558307968054149 -0.0002505721920345019 -0.00025491292376227277 -0.00023748542120969913 -0.0002448201296348379 -0.00017816102600782906 -0.00022840916138358561 -0.0001894482531798102 -0.00026701896746334115 0.00014315001221322144 0.0009715092766050336 0.0006105119487607691 0.0001364659278785605 0.00034530901868853853 0.0009519661155534195 0.0012121308636926377 -0.0002610332752968147 -0.0002633693058852014 -0.00014197109519742816 -0.00025666400873834775 -0.00014566769817650463 -0.00026223406717025934 -0.00025441435879981647 -0.0002587306512790649 -0.0002568946381229228 0.0009571680395655705 0.000914887801399441 0.0007003132966370991 0.0010402432243476025 0.0008189474352940648 0.0008009419275416266 0.0007317597551898611 0.0006979955364637379 0.0008482574159570369 0.0005873975921668488 0.0007949711806321444 0.0010982832796299735 1.9760093093644552e-05 -0.00018451775149328094 -0.00023174145948588802 -0.00022509817314737447 4.7219350299277815e-05 0.0006844045458475333 0.0001505866725848874 -0.00023016188727571787 -0.00017460569710516454 -0.0002445805963552794 -0.00019562242952757345 -0.00022400352260683857 -0.000243343400206946 -0.00025614350724158594 0.0006826011513943619 -0.00022670480677563557 -0.00023680090707375713 -5.384199655121226e-05 -6.254480656979353e-05 -0.00020193580445647868 -1.745768094513981e-05 -9.796749988507414e-05 -0.00025315792190928313 -0.00018881176718202433 -0.00016700648490145228 -0.0002517913761397725 -0.00025945323825247855 -0.00025324362981020014 -0.0002648997515422576 0.00018504052632209951 0.0006046237194221994 0.0007339271091365737 0.0007735921891221176 0.0006613302100568626 -0.0002456990110605165 -0.00024121393292499062 -0.00021840483067196343 0.00014557047954533582 -8.029920652922993e-05 -0.0002418543299545612 -0.00021904319827479953 -0.00024277939967849396 0.0003181707257135206 0.0009256876293908689 -0.00016673695856360464 -0.0002459949156765826 -0.0002300289168553867 -0.00023774620248087413 -0.0001721075225979364 -0.0002496639939572346 -0.0002468490282930043 -0.00023887554286463884 -0.0002499508737864151 -0.00022687936089495873 -0.00023458378143745304 -0.00022271675022273444 -0.0002357015118662232 -0.00022685362641517145 -0.00022649549945555014 -0.00024324811045242675 -0.00020827256057485538 -0.0002186754934995965 -0.00021442567472121073 0.0004166120501955243 0.0004699706518799712 0.0009526373226212196 -0.00023452910654410893 -0.00025025896520473206 -0.00023248334767390563 -0.00021189333989708232 -0.00019728945624576338 -0.00010420846769841353 -0.0002280772390813627 -0.00022257433243086903 -0.00018502660911990716 -0.0002177073911218709 -0.00020193316294343094 -0.00020871303635268052 -0.0001848210615648041 -0.0001972747995470064 -0.00019658311828932304 -0.00020877289573317519 -0.00019667279531221352 -0.00021100486502842342 -0.00018457412828596414 -0.00016084413013389936 -0.00019325161882709913 -0.00017772651837121508 -0.00019991097987475095 -0.00017210921976402183 -0.00018094096764549163 -0.00020815230089296443 -1.6668318842734367e-05 -0.00016432075791665223 -0.0001752774241262126 -8.638636395912183e-05 -0.00017336206982699885 -0.00018826009393913177 -0.00013670659512959686 -0.00014536706308829523 -0.00017695253294479674 -0.00017529899142286348 -0.00016078327694208188 -0.00015183096295073485 -0.0001535687916569421 -0.00013779405823264785 -9.521004274620473e-05 -0.0001633334518143376 -0.00012438660275981692 -0.00014268319731612587 -0.00016314601295619487 -1.957144635038114e-05 -0.00017861096794606336 -0.00012587232068068097 -0.00022656431688837238 -0.00022340061561945473 -0.00023955043612075019 -0.00018845136208978637 -0.00019929936119173747 -0.00014729023215059422 -0.0002325132168133164 -0.00020200462280475358 -0.0001984074289964623 -0.00020079276272302014 -0.00019058061336275136 -0.00016669852324929901 -0.00011905455836826439 -0.00016112394349478688 -0.00013487804299716107 -0.00013706621615401779 -0.00012446775414809875 -9.091964461779462e-05 -0.00010321048980217482 -0.00010916359748703935 -8.668435390629134e-05 -0.00010041919429882367 -7.01529985009868e-05 -8.375926187442016e-05 -6.066123625518114e-05 -0.0002141228488527365 -0.00014755223368063372 -0.00013674414243466812 -0.00016996209814315385 -0.00014358581029223823 -0.00010639273201709978 -0.00013706361880262675 -0.0001540886948485526 -0.00016717775091435046 -0.00012043543893582647 -0.00010327504351047523 -7.455362006234463e-05 -9.085837100931384e-05 -8.77783351444604e-05 -8.185965967343998e-05 -0.00022296669126909636 -0.00021827582708481582 -0.00021685623163409182 -0.0002038826157240134 -0.00021218763462119717 -9.533771139694874e-05 -9.162849861032841e-05 -0.00012538664420340049 -0.00011742724459035993 -7.178609136079228e-05 -4.6689187190641304e-05 -0.00019827598944416913 -0.0001894611195334085 -9.247424485243264e-05 -0.00012350167806829458 -9.205497154943389e-05 -0.00011854714167769552 -0.0002054571488978754 -0.00016204059655533103 -0.00019230138827864302 -0.00018128183439869634 -0.00012737519073721857 -7.055353499150146e-05 -0.00011482695391201177 -0.00019237377662062902 -0.00017200046511730053 -0.00018555358196455348 -0.00012246610630595544 -0.00013683600199158573 -0.0001684040354728253 -0.0001636990292553417 -8.387601991531372e-05 -8.45381771577454e-05 -0.00012042849730598561 -0.00013550285123997875 -0.000160217429174067 -0.00013158234801553971 -0.00015066605934218225 -0.00013620528240850002 -0.00014834374885510472 -0.00010386963967646325 -0.00011720380255171087 -0.00013810722138170138 -0.00011992179238955956 -0.00013165923463313056 -0.00010457289455175021 -0.0001169046679142865 -9.441346198738112e-05 -0.0001544518029505782 -0.00014727769965949757 -0.0001270819707756861 -0.00015142670658923842 -7.957115439606597e-05 -9.888500712537595e-05 -9.075559298353193e-05 -5.05754858290351e-05 -6.956225096376051e-05 -0.00011094017332480006 -0.00010696476933419283 -6.248873697671167e-05 -6.749436222317408e-05 -0.0001024736259737926 -9.110496468625407e-05 -6.029960068387174e-05 -4.23159386066191e-05 -7.845789993121327e-05 -6.057504147742486e-05 -0.00010224341597249468 0.0015707890901409014 0.00046709477910335885 0.0002890065736978698 0.00042984949174499785 0.000543880084094128 0.00043410689382473663 0.0009762232695209824 -0.00019006976376523323 -0.0002148492650074418 -0.00015592860693817184 9.392727374736854e-06 -5.0923890121487545e-05 -0.00026819077582246716 -0.0002598806950794635 -0.00025550142668533815 -0.00026635578241432383 -0.00026339695973711974 -0.00026987120376643534 -0.000274200589517895 -0.00026904115043178034 -0.00027092587562130413 -0.0002780365828248293 0.0002730118951931593 -0.00018821707648009886 -0.00010464268433738074 -0.0001216853751062043 -0.00011698482353116137 -0.00010017835423112593 -5.056522753170724e-05 -9.158892696700223e-05 -6.728429159101529e-05 -7.490529252079645e-05 -8.553786908894906e-05 -5.1729663672444474e-05 -6.637378489276386e-05 -6.315571497962728e-05 -5.571613838911036e-05 -3.446934911429017e-05 -3.583261264684368e-05 -5.486142068249426e-05 -4.257407426949602e-05 -2.8651999821306876e-05 -2.2839902408175223e-05 -2.3860228282862728e-05 1.1419225413261157e-07 1.8328973473630242e-05 -1.376412690983177e-05 -1.5407293090937543e-05 -3.966547350335015e-06 -1.0381947438719793e-05 1.1226159862887246e-05 1.0571126492086424e-05 3.2249808981926935e-05 -7.764523722932656e-06 6.078511710630231e-06 -3.456740945517186e-06 1.7027937839524937e-05 -7.255591751260808e-05 -3.9640954066981566e-05 -3.789786130864285e-05 -4.508567569606735e-05 8.63716826451321e-06 4.4371455531475936e-05 -9.443616494101748e-06 -3.086345961068589e-05 3.132409570986647e-05 2.2359010142022886e-05 3.470939465406663e-05 2.3121804581775964e-05 3.919350543178661e-05 3.847276305691749e-05 2.705188003638166e-05 5.5521296872618705e-05 1.4089703429553984e-05 2.236466703529685e-05 4.913440007550086e-05 2.8651430971976223e-05 8.918324517468779e-05 2.974586219004188e-05 5.4870296019069074e-05 4.536768692252642e-05 7.090599504199417e-05 5.2387715532474876e-05 6.212314829361956e-05 4.448279154312907e-05 4.7755356605306224e-05 4.238119833928964e-05 6.383196493905828e-05 6.0341642631489645e-05 5.455392026134961e-05 5.084458001172745e-05 5.492436143065366e-05 7.182531532821478e-05 8.371985299675716e-05 6.487238042117758e-05 7.277717351907556e-05 6.503916701027624e-05 7.394012255971977e-05 7.403838323049741e-05 8.116367941570375e-05 5.5966230106866395e-05 5.970088608446312e-05 6.592229914133617e-05 6.717413790345503e-05 7.37053424206511e-05 6.683603973552543e-05 6.665696658491754e-05 5.305238111004329e-05 3.6518623052321336e-05 3.200496603746365e-05 -1.4607136854137217e-05 -2.3101312098950976e-06 2.5495445864317623e-05 6.499393124095595e-05 7.828363390713364e-05 7.861355146090278e-05 8.897468814922486e-05 4.400897575955431e-05 -4.179582872990163e-06 1.9197060878289002e-05 1.7157352714638772e-05 7.560739618172048e-05 8.083994213168512e-05 8.525161903489268e-05 8.360974763647763e-05 4.1422748156554366e-05 -1.5146709692749858e-05 2.4797527305884046e-05 7.458944892240634e-05 8.599496071937886e-05 7.696697022908056e-05 8.372351785502782e-05 8.958094780379979e-05 9.307428082733805e-05 9.125247219159759e-05 9.31042755901597e-05 8.88203222190867e-05 8.6568026445147e-05 7.08591437183187e-05 6.43302167090376e-05 6.409964403113974e-05 5.588348889003462e-05 2.6295376412969257e-05 8.184634362752914e-05 8.220911732483974e-05 4.405811042965443e-05 7.179521083602889e-05 4.813053673920578e-05 3.838387104981703e-05 5.522397841209277e-05 2.335676353164209e-05 3.391239404959571e-05 3.464162780814859e-05 6.571665296628519e-05 5.8572675348751776e-05 4.760431196986559e-05 5.194703681563906e-05 5.2984128657071595e-05 4.370610890123452e-05 5.492938711111664e-06 4.3642235134368905e-05 2.2130745743105387e-05 4.3267034334424915e-05 3.499048763135403e-05 2.4567103531850987e-05 2.3385718529475543e-05 3.2403757555170986e-05 -2.034522628562838e-06 8.422029801173228e-06 1.2177752565653367e-05 3.7145930228693996e-06 4.018212323506646e-06 -2.2892250959637058e-05 -8.065090894916939e-06 -1.546219661296674e-05 -1.5127996617397747e-05 -4.44629075090797e-05 -2.1543195149788294e-05 -3.065075131636748e-05 -4.7322521090626946e-05 -3.069648644747006e-05 -1.4163171714357056e-05 -5.6453185276715116e-06 -4.579254081845759e-05 -1.6668684942318758e-05 4.2387065840975315e-06 -3.327480450764083e-05 -3.5167047149116334e-05 -2.890409837162887e-05 -6.192576462401977e-05 3.0082323249480317e-06 1.41586151448624e-05 3.2988581232707346e-05 1.70408612221327e-05 3.516154449103669e-05 -6.684616111818145e-06 -4.333845753503204e-05 -4.428684423618326e-05 -2.6814792436214274e-05 -6.145177576159589e-05 -7.744886930546361e-05 -7.825964333354592e-05 -7.724041770862215e-05 1.6028950733443317e-05 1.0769194520464945e-05 2.5336455560127615e-05 -1.0343911564561952e-05 4.978519374223778e-05 -9.628543842712663e-06 -3.056671191926356e-05 -3.912246596393015e-05 -6.262548539267846e-05 -1.4251223556396805e-05 3.553920116969373e-05 -4.0248021970917346e-05 3.354390261106239e-06 5.1033634459648e-05 3.953600942205037e-05 1.0777671031224063e-06 1.7991505419189527e-05 4.395015231810305e-05 5.157832543291905e-05 5.03766798781643e-05 6.665482396614467e-05 1.8297212469810566e-05 7.375664092907323e-05 3.272638916362256e-05 7.355830577864855e-05 6.280007232094912e-05 8.53043785988637e-05 4.2940845361153826e-05 5.4928536954302446e-05 6.433382432408209e-05 8.738793669197043e-05 7.719416168568205e-05 7.385738572068987e-05 8.030477955477244e-05 6.899564697758166e-05 8.322152620475343e-05 8.6799594663529e-05 7.983488881651775e-05 8.536840584104042e-05 7.369009903325533e-05 6.043594803049403e-05 6.139506152716814e-05 2.9396040942195338e-05 3.04937279728562e-05 -7.595849592460736e-05 -0.00011721032660529492 -0.00012286294943297544 -0.00012363489910854826 -0.0001044482965365047 -0.00010932255190135877 -9.75864578795266e-05 -8.326118362718763e-05 -8.939388918246903e-05 -0.0001033351248408323 0.00031906255288424 0.0004943587980644792 -2.093245568390342e-05 0.00018820338325380845 -2.948615475795849e-05 -3.5409105944841854e-05 4.576776606284015e-05 6.857704364415232e-05 -4.248734048009353e-05 1.871484492301094e-05 -6.470970948589089e-06 1.2381092461069148e-05 8.424767221553278e-05 1.420067164119779e-06 1.4997769262373159e-05 -2.299419000684732e-06 1.6375530286007662e-05 2.677953590550962e-05 -3.324316061848289e-05 -4.69790805382738e-05 -6.217061544562274e-05 -7.504757838515151e-05 -5.59639025203461e-05 2.8032913708604568e-05 4.89178229215976e-05 -8.323702293868061e-05 0.00030402178161562836 -2.110717417571206e-05 -4.8634626472681384e-05 0.0002938702576926831 -3.8098230289107926e-05 0.0008243246492656694 0.000703107485101139 -6.184774876672058e-05 5.622015251389952e-05 4.014145583466818e-05 9.674187451674206e-05 -6.230658342561808e-05 -3.478374578695827e-05 3.0132787452400773e-05 -1.8825488837626547e-05 8.622631558194488e-05 3.0557098698202727e-05 -7.986947410024782e-05 0.0004462916970382374 0.0006888078287610503 0.0006615946171786377 0.0006784975179970072 -3.0130476353117827e-05 1.5306614942403533e-05 0.0006627007381611774 0.0006619183774647523 0.000103287855201371 0.0009085061308515246 -8.095459728116226e-05 -5.214407014147985e-05 -1.4092463068461143e-05 0.00011944289217319564 0.0005368527113152982 0.0007250890677045228 -5.610640217449698e-05 5.825295335569777e-06 0.00021454865467943591 0.0006114675841427207 3.024778251201411e-07 0.0008343717215424323 0.0003248822480414307 0.00029582775765260637 0.00021845282165768203 0.0007164772997811736 -1.1930210115503105e-05 -2.4815199737205747e-05 2.925621214363072e-05 1.4517537841468206e-05 2.6196541177073064e-06 -3.332293306501922e-05 6.755483058774336e-05 6.461902552485912e-05 8.535945835979814e-05 7.65155802340013e-05 6.7627385573386e-05 0.00022637925497727795 0.0006659033567854308 -1.8708947539512562e-05 -2.0785653170029434e-05 0.0006355362471645859 0.0008305210522955142 9.291221793554557e-05 8.149560008083595e-05 -6.701719505148574e-05 -6.783745375965398e-05 0.0010159957659241483 0.0007110612823514832 7.735777383991737e-05 0.0009172539262355931 7.713572118517215e-05 9.917853318376101e-05 0.0007379090400740396 7.322159274823469e-05 6.065836179648155e-05 9.234184586514278e-05 0.000697199172574461 9.930449417234737e-05 0.0007023353718847796 0.0006971167658108605 5.1431989532858454e-05 8.836915328961559e-05 9.317898001651291e-05 9.564397991893203e-05 8.805226216043343e-05 9.620074956454344e-05 8.272157516719207e-05 9.799759284610563e-05 8.345683623403096e-05 9.825439607089124e-05 9.773705908128213e-05 9.277145003782777e-05 9.309480707151936e-05 9.515303988512464e-05 9.698679061046457e-05 8.537467918247235e-05 8.062662729042762e-05 8.592587837532698e-05 8.376202315208423e-05 8.879544514327159e-05 8.444834230884682e-05 -4.8605334982127465e-05 4.752201886336833e-05 6.142601261889716e-05 4.8694267108774225e-05 5.509644380704087e-05 4.649297272463582e-05 6.51979272793309e-05 5.7250733605915e-05 7.933217254676203e-05 6.544092436833085e-05 9.400344679681901e-05 2.991048188648437e-05 2.673790588493793e-05 0.0005034124517679368 0.000660201799205547 0.0006208285710429856 0.0006832922667506995 4.71378722635247e-05 -5.122010903011372e-06 -3.0008775281207584e-05 0.0006818710086695874 0.0005289545579679353 2.926707065807884e-05 1.8519245554279266e-06 0.000644189421386004 -7.560483515200875e-05 0.0010137560982548767 0.0009820589499519824 6.87469223729359e-05 6.250206543909661e-05 4.1730722475815524e-05 5.0543549284185106e-05 9.844649921004749e-05 9.377662340314785e-05 8.929219322719957e-05 9.737845873263746e-05 9.197567340783789e-05 9.275973965267401e-05 9.616223138219877e-05 9.542149311773146e-05 9.361231856862715e-05 8.330479644093043e-05 9.653136613712283e-05 9.704786020022178e-05 9.741628166060329e-05 9.555662377099096e-05 8.72355