<?xml version="1.0"?>
<VTKFile type="UnstructuredGrid"  version="0.1"  >
<UnstructuredGrid>
<Piece  NumberOfPoints="1289" NumberOfCells="2413">
<Points>
<DataArray  type="Float64"  NumberOfComponents="3"  format="ascii">0 0 0  0 0.41 0  2.2 0.41 0  2.2 0 0  0.1 0.1 0  0.1 0.3 0  0.8 0.3 0  0.8 0.1 0  0.25 0.2 0  0.248976 0.210065 0  0.245948 0.219718 0  0.241038 0.228563 0  0.234448 0.23624 0  0.226448 0.242432 0  0.217365 0.246888 0  0.207571 0.249423 0  0.197468 0.249936 0  0.187467 0.248404 0  0.17798 0.24489 0  0.169395 0.239539 0  0.162062 0.232569 0  0.156283 0.224265 0  0.152293 0.214968 0  0.150257 0.205058 0  0.150257 0.194942 0  0.152293 0.185032 0  0.156283 0.175735 0  0.162062 0.167431 0  0.169395 0.160461 0  0.17798 0.15511 0  0.187467 0.151596 0  0.197468 0.150064 0  0.207571 0.150577 0  0.217365 0.153112 0  0.226448 0.157568 0  0.234448 0.16376 0  0.241038 0.171437 0  0.245948 0.180282 0  0.248976 0.189935 0  1.1 0 0  1.1 0.41 0  0.1 0.2 0  0.45 0.1 0  0.45 0.3 0  0.55 0 0  0.275 0.1 0  0.275 0.3 0  0.275 0 0  0.55 0.41 0  0 0.205 0  0.825 0 0  0.825 0.41 0  0.275 0.41 0  0.1 0.15 0  0.1875 0.1 0  0.1 0.25 0  0.1875 0.3 0  0.132322 0.2 0  0.241426 0.253518 0  0.241426 0.146482 0  0.264574 0.17974 0  0.264574 0.22026 0  0.138434 0.187348 0  0.153372 0.150948 0  0.148413 0.164094 0  0.176495 0.136535 0  0.22768 0.143571 0  0.138434 0.212652 0  0.148413 0.235906 0  0.176495 0.263465 0  0.22768 0.256429 0  0.23125 0.3 0  0.24769 0.24094 0  0.23125 0.1 0  0.24769 0.15906 0  0.26253 0.193641 0  0.190482 0.137872 0  0.166753 0.146661 0  0.157737 0.244461 0  0.190482 0.262128 0  0.203107 0.261264 0  0.253635 0.22977 0  0.203107 0.138736 0  0.253635 0.17023 0  0.261028 0.206206 0  0.167707 0.251809 0  0.143629 0.224191 0  0.215302 0.2591 0  0.270465 0.245894 0  0.215302 0.1409 0  0.270465 0.154106 0  0.284052 0.202587 0  0.14375 0.3 0  0.209375 0.3 0  0.225966 0.278501 0  0.209375 0.1 0  0.225966 0.121499 0  0.211613 0.273759 0  0.211613 0.126241 0  0.143629 0.175809 0  0.1 0.175 0  0.133484 0.164832 0  0.144491 0.249539 0  0.1 0.225 0  0.133484 0.235168 0  0.3625 0.3 0  0.25691 0.253381 0  0.25691 0.146619 0  0.277205 0.188698 0  0.184724 0.275712 0  0.237372 0.268285 0  0.184724 0.124288 0  0.237372 0.131715 0  0.197578 0.273149 0  0.193656 0.286994 0  0.197578 0.126851 0  0.193656 0.113006 0  0.122953 0.187671 0  0.118362 0.153758 0  0.155372 0.258107 0  0.122953 0.212329 0  0.118362 0.246242 0  0.276394 0.27264 0  0.276394 0.12736 0  0.280965 0.170013 0  0.253125 0.3 0  0.14375 0.1 0  0.253125 0.1 0  0.269489 0.26014 0  0.269489 0.13986 0  0.303639 0.184297 0  0.165625 0.3 0  0.134742 0.273113 0  0.257831 0.274737 0  0.255279 0.128499 0  0.3625 0.1 0  0.165625 0.1 0  0.162031 0.132368 0  0.134955 0.126405 0  0.149334 0.125568 0  0.142936 0.139597 0  0.12695 0.140259 0  0.242514 0.285501 0  0.242514 0.114499 0  0.1 0.125 0  0.117483 0.12555 0  0.11154 0.139776 0  0.121875 0.1 0  0.109143 0.1125 0  0.126805 0.114 0  0.220313 0.29129 0  0.351562 0.287369 0  0.207222 0.2866 0  0.220312 0.10871 0  0.1375 0 0  0.20625 0 0  0.207222 0.1134 0  0.11722 0.17118 0  0.1 0.1625 0  0.0778409 0.16875 0  0.0862762 0.15625 0  0 0.15375 0  0 0.1025 0  0.11722 0.22882 0  0.1 0.2375 0  0 0.3075 0  0.0862762 0.23125 0  0.0598995 0.222547 0  0.0860223 0.2125 0  0.289584 0.181469 0  0.300267 0.16446 0  0.163832 0.269071 0  0.149597 0.273325 0  0.1 0.275 0  0.268498 0.285953 0  0.31875 0.3 0  0.294154 0.254672 0  0.296875 0.3 0  0.293558 0.271845 0  0.285095 0.286799 0  0.324298 0.264316 0  0.307866 0.263745 0  0.317093 0.234901 0  0.315485 0.281219 0  0.316547 0.250625 0  0.344693 0.243731 0  0.331592 0.251147 0  0.35129 0.270663 0  0.338689 0.263683 0  0.340625 0.3 0  0.249849 0.264383 0  0.265097 0.11422 0  0.284688 0.156136 0  0.242188 0.324017 0  0.0856613 0.2625 0  0.132812 0.0612217 0  0.264062 0.0612217 0  0.198437 0.07598340000000001 0  0.0860223 0.1375 0  0.0794526 0.191089 0  0.285228 0.140397 0  0.298655 0.148737 0  0.31875 0.1 0  0.327335 0.15374 0  0.296875 0.1 0  0.312289 0.155283 0  0.313348 0.135607 0  0.321802 0.173916 0  0.298433 0.134116 0  0.112124 0.2625 0  0.127526 0.259083 0  0.121875 0.3 0  0.0682687 0.241503 0  0.1 0.2875 0  0.117762 0.28125 0  0.107813 0.3 0  0.103906 0.313849 0  0.0778409 0.28125 0  0.1375 0.41 0  0.0862762 0.29375 0  0.08886860000000001 0.24375 0  0.307812 0.338778 0  0.307812 0.292227 0  0.33216 0.279164 0  0.387888 0.266414 0  0.264063 0.31948 0  0.110937 0.07598340000000001 0  0.242188 0.07598340000000001 0  0.319914 0.11839 0  0.340625 0.1 0  0.334448 0.133793 0  0.329687 0.108539 0  0.346259 0.118491 0  0.360334 0.173636 0  0.327539 0.205033 0  0.132812 0.288712 0  0.362436 0.278836 0  0.368105 0.259418 0  0.4125 0.41 0  0.329687 0.324017 0  0.329687 0.292306 0  0.285938 0.318952 0  0.417187 0.338778 0  0.324481 0.14148 0  0.351562 0.106771 0  0.40625 0.1 0  0.341028 0.168342 0  0.319221 0.190479 0  0.335292 0.184501 0  0.305563 0.20794 0  0.220313 0.31948 0  0.132812 0.332772 0  0.0865876 0.311259 0  0.0598995 0.302453 0  0.0906541 0.343255 0  0.353543 0.255837 0  0.36574 0.237633 0  0.405007 0.254279 0  0.275795 0.352123 0  0.4125 0 0  0.35493 0.137394 0  0.366563 0.120618 0  0.35917 0.205246 0  0.198438 0.318952 0  0.0626109 0.263892 0  0.40625 0.3 0  0.354809 0.155936 0  0.386512 0.146872 0  0.373101 0.159939 0  0.384375 0.1 0  0.343394 0.19929 0  0.350682 0.185683 0  0.368101 0.189748 0  0.344016 0.221511 0  0.391108 0.213329 0  0.376279 0.204783 0  0.398843 0.182768 0  0.375804 0.222746 0  0.390665 0.196958 0  0.394004 0.23518 0  0.359883 0.222828 0  0.419908 0.204359 0  0.404243 0.204783 0  0.412615 0.224526 0  0.20625 0.41 0  0.165625 0.325257 0  0.0347982 0.244954 0  0.379558 0.247154 0  0.34165 0.147603 0  0.372264 0.136992 0  0.388988 0.121989 0  0.373437 0.108554 0  0.351562 0.31948 0  0.391367 0.16527 0  0.399572 0.223324 0  0.452011 0.227371 0  0.40877 0.239392 0  0.431491 0.237337 0  0.421224 0.250459 0  0.449619 0.262098 0  0.418865 0.276779 0  0.437063 0.252274 0  0.415673 0.263227 0  0.430988 0.266772 0  0.402767 0.273419 0  0.452967 0.244883 0  0.428125 0.3 0  0.408502 0.286186 0  0.384375 0.3 0  0.392267 0.285807 0  0.465927 0.219339 0  0.43489 0.283846 0  0.376424 0.286289 0  0.625 0.3 0  0.473533 0.205186 0  0.461713 0.255517 0  0.5375 0.3 0  0.465725 0.235405 0  0.44631 0.201425 0  0.471875 0.3 0  0.494307 0.227729 0  0.459448 0.206736 0  0.462294 0.180792 0  0.478933 0.227536 0  0.486793 0.21381 0  0.486322 0.251373 0  0.50065 0.215318 0  0.54005 0.175389 0  0.474633 0.189893 0  0.512916 0.208697 0  0.49531 0.199967 0  0.475889 0.175275 0  0.625 0.1 0  0.459311 0.153933 0  0.513645 0.242704 0  0.392892 0.248539 0  0.374815 0.271913 0  0.365974 0.14871 0  0.395312 0.109184 0  0.417061 0.123981 0  0.483196 0.277003 0  0.381967 0.179632 0  0.429898 0.219374 0  0.433473 0.206165 0  0.43149 0.181038 0  0.444208 0.215487 0  0.472985 0.247309 0  0.49375 0.3 0  0.475579 0.262714 0  0.49916 0.274293 0  0.501175 0.184809 0  0.514164 0.225681 0  0.543648 0.214977 0  0.5341630000000001 0.23481 0  0.527396 0.216171 0  0.5375 0.1 0  0.534548 0.202315 0  0.561545 0.192513 0  0.5494289999999999 0.201221 0  0.570923 0.218346 0  0.412582 0.149833 0  0.489327 0.264745 0  0.502439 0.254775 0  0.462391 0.271166 0  0.496775 0.241732 0  0.5294410000000001 0.268606 0  0.482812 0.291099 0  0.46879 0.285038 0  0.452663 0.284065 0  0.51789 0.257882 0  0.53408 0.252026 0  0.560142 0.243543 0  0.545708 0.243474 0  0.547532 0.229019 0  0.55282 0.265323 0  0.398971 0.153424 0  0.400349 0.135684 0  0.410135 0.168145 0  0.428823 0.161323 0  0.415266 0.183779 0  0.329687 0.0810483 0  0.395312 0.0612217 0  0.373437 0.318952 0  0.439062 0.324017 0  0.561816 0.229354 0  0.585029 0.239287 0  0.431827 0.139854 0  0.446796 0.168929 0  0.351562 0.07598340000000001 0  0.395313 0.318944 0  0.54337 0.150762 0  0.460937 0.31948 0  0.418412 0.137529 0  0.428125 0.1 0  0.442783 0.152332 0  0.450742 0.134294 0  0.373437 0.0805201 0  0.384383 0.342558 0  0.482812 0.318952 0  0.429239 0.127457 0  0.444274 0.117405 0  0.426548 0.113815 0  0.49375 0.1 0  0.488954 0.113984 0  0.457973 0.121842 0  0.471621 0.137346 0  0.515625 0.325257 0  0.48125 0.41 0  0.417187 0.07598340000000001 0  0.496363 0.126778 0  0.479043 0.155715 0  0.439062 0.0805201 0  0.481795 0.126919 0  0.471875 0.1 0  0.489227 0.142159 0  0.515625 0.1 0  0.520062 0.147117 0  0.501244 0.161791 0  0.505431 0.112984 0  0.505344 0.14029 0  0.526563 0.119081 0  0.5181750000000001 0.131908 0  0.539868 0.136937 0  0.460937 0.108383 0  0.474242 0.114415 0  0.460937 0.0810483 0  0.487841 0.167168 0  0.526563 0.0612217 0  0.526563 0.106406 0  0.537619 0.112743 0  0.58125 0.1 0  0.559375 0.1 0  0.482812 0.08105569999999999 0  0.471883 0.0587655 0  0.570312 0.129396 0  0.548437 0.07598340000000001 0  0.504687 0.08105569999999999 0  0.49375 0.0470127 0  0.570312 0.112663 0  0.592798 0.12103 0  0.553986 0.12103 0  0.570312 0.0805201 0  0.48125 0 0  0.114787 0.2 0  0.160769 0.284765 0  0.175816 0.288361 0  0.162602 0.116048 0  0.154687 0.07598340000000001 0  0.176562 0.0805201 0  0.0598995 0.147547 0  0.307812 0.109924 0  0.291279 0.117157 0  0.278491 0.112989 0  0.285937 0.07598340000000001 0  0.307812 0.0805201 0  0.296928 0.196743 0  0.318141 0.218507 0  0.330208 0.227509 0  0.301397 0.225668 0  0.302706 0.241401 0  0.292574 0.21424 0  0.282762 0.230935 0  0.284351 0.244775 0  0.269553 0.23261 0  0.278572 0.217242 0  0.226924 0.342606 0  0.446928 0.185396 0  0.515625 0.3 0  0.504687 0.288879 0  0.515256 0.276534 0  0.529479 0.285328 0  0.58125 0.3 0  0.541969 0.272936 0  0.559375 0.3 0  0.556796 0.282529 0  0.543473 0.287206 0  0.581429 0.267774 0  0.566728 0.271171 0  0.570869 0.255585 0  0.577404 0.283865 0  0.603125 0.3 0  0.597531 0.28035 0  0.570312 0.338778 0  0.592188 0.292492 0  0.603513 0.256094 0  0.614063 0.286265 0  0.610329 0.27064 0  0.632708 0.251285 0  0.657223 0.261594 0  0.618789 0.257807 0  0.614188 0.22987 0  0.630935 0.265614 
[...]
<PointData  Scalars="p"> 
	<DataArray  type="Float64"  Name="p"  format="ascii">
0.0007011623237599562 0.0006750307206128264 -2.1867991595054843e-07 -1.2423880047793097e-08 0.000760347911905611 0.0007527945065037743 5.7681571008068274e-05 5.8548310386974805e-05 -0.00026461623750408944 -0.0002787002481966557 -0.00033319692279796636 -0.00033674597116208126 -0.0003294608005539692 -0.0004029382768805949 -0.00034520045147759363 -0.0001300357088412368 -0.0002923565764193386 -0.00047442606594674304 -0.000318500843536058 1.3316327372831556e-05 0.0005181426815045926 0.0011602696069242654 0.0016812325825957997 0.002009733598686373 0.0020043635051756803 0.0016634170410622566 0.0011448874441893355 0.0005046903620497128 -9.053761748384668e-05 -0.0003280374300040649 -0.00044333549113692307 -0.00029886497028459717 -0.00012699541997029335 -0.0003506519223233252 -0.00040657317668112624 -0.00032534229192810626 -0.00033362563902923674 -0.00033227396674303 -0.0002794827072090483 8.911076898199372e-05 8.273800849108986e-05 0.0014013861228197519 -0.0001515611609960785 -0.0001497554547700291 -7.454658172090379e-05 -7.947419594591552e-05 -8.656185131285542e-05 0.00017255926028781024 -5.696259354184553e-05 0.00099763619783889 4.244727590994478e-05 4.065412167089463e-05 0.00019570891707685134 0.0010705648742630855 0.0002701692287867369 0.0010702931962789887 0.00028090482147703663 0.0018200647123681776 -0.00022618272060074895 -0.00022353170556650261 -0.0002827746230657707 -0.0002853376515357202 0.0017701950398455754 0.0006038563079357037 0.0009989533524612127 1.4579213014434155e-06 -0.00035024246525745497 0.0017837991620264935 0.0010078570652449874 1.858357595548356e-05 -0.00034623735946739996 4.411324614337433e-05 -0.00020110958007561272 4.2789030965419905e-05 -0.00020164082430977522 -0.00027979361496415883 -0.0001940277834478166 0.00012240983083538923 0.0005039264786038826 -0.00020319816810920313 -0.00017404013561830894 -0.0003127732335729833 -0.00017576527845005846 -0.0003136610088530274 -0.00027981165050964277 9.579106459911099e-05 0.0014404700843622849 -0.00016233995001868864 -0.000272361693399438 -0.0001611914647844392 -0.00027047584865450225 -0.000272692197632829 0.0005939108185728118 0.00012390666398152006 -0.00017768387619694284 0.00015281292268913031 -0.0001689442871677384 -0.00011446333703062593 -0.000114877081027529 0.0014258997243625719 0.0012799749581482445 0.0012791657848882098 0.0008217989192782102 0.0013002667341774504 0.0013021277793977383 -0.00016861163194947882 -0.0002407940799547108 -0.00024226560505500894 -0.0002767249349961647 8.708278609875856e-05 -0.00020774803553351065 7.945853056778821e-05 -0.00021344897314308942 -3.991747853948498e-05 0.00014030438713658332 -2.6525773268257905e-05 0.00014481927721088367 0.0016067818037550348 0.0011330003666391345 0.0005491734809791937 0.0016054140805582904 0.0011388470609494114 -0.00021738328894595966 -0.00022458917621744122 -0.00027422167628905585 -5.775487028439477e-05 0.0005930209618814701 -3.848933364564117e-05 -0.00023416870275264193 -0.00023721795382562535 -0.00026563303934917386 0.00044349778218790055 0.0007762346439804833 -0.00023096340300248077 -0.00021877577496931877 -0.0001691937247798075 0.0004648102631130357 0.00040717604463575845 0.0007553114691266048 0.0006128742769283326 0.0007017198684128751 0.0009093676951219264 -0.00010325727553965117 -9.227569497773589e-05 0.0008792697116437759 0.0008453638443112143 0.0009693102523674459 0.0007036211826987708 0.0007910543618196581 0.0007420782325782313 -2.358715435306854e-06 -0.0002035476110098373 2.6475647951400037e-05 -7.939598726707209e-07 0.0006154533262339668 0.0004054977825247939 4.6319341395007284e-05 0.0013439978450542304 0.0011727136484414365 0.0011341168882418287 0.0010797488251668827 0.0009313525662545496 0.0007894825213073409 0.0013464746574676446 0.0011940670287525455 0.0007582074156659936 0.0011544406328563989 0.0010895214529568777 0.0012500945937148314 -0.00027133702550716585 -0.00026674977808719005 0.0003546809216771833 0.0005891350838041718 0.0008787784360296716 -0.00017230284654289727 -0.00014516279371963505 -0.0002734356030506248 -0.0001396385994158659 -0.0002526666849882492 -0.00018973443908149216 -0.00025470378242413265 -0.0002503494871555425 -0.0002614001983511286 -0.00022079061978894855 -0.00025575488170382396 -0.0002504035679457004 -0.00025475042270008716 -0.00023721375546455626 -0.0002446119195004794 -0.00017788257167325328 -0.00022840979631764914 -0.00018974312545831743 -0.00026692195036348283 0.00014329965504080412 0.0009715632777864654 0.0006105393398491781 0.00013645990895846572 0.00034529902041098646 0.0009519697099996442 0.0012121557289032053 -0.00026104423153013956 -0.0002633449779483745 -0.00014203488130698003 -0.0002568253566660386 -0.00014590688078548958 -0.00026232935892754795 -0.0002545378887552778 -0.0002588184903851782 -0.0002570253762696644 0.0009572268857233886 0.0009149551817743949 0.0007003616547696725 0.0010402925733241594 0.0008190007883800683 0.0008009958392627497 0.0007318122579217199 0.0006980468234000118 0.0008483143671906216 0.0005874258199950001 0.0007950267970604902 0.0010983347131337305 1.988634609339622e-05 -0.0001843863129158997 -0.00023149630641272506 -0.00022474786818891407 4.726249913593622e-05 0.0006844215225198566 0.00015049065587863263 -0.00023044099451329954 -0.00017491738765122182 -0.00024481374992387905 -0.0001958612312772747 -0.00022430457821217038 -0.00024351633349582123 -0.00025615545865687836 0.0006826537630134283 -0.00022638469188391493 -0.00023653496128324864 -5.340815011747508e-05 -6.23321321474092e-05 -0.00020167620295336781 -1.727072876038344e-05 -9.744659450442056e-05 -0.0002533404425450693 -0.00018911273308686908 -0.00016751824883327768 -0.00025195574668758865 -0.0002594951382220739 -0.00025332834225189836 -0.00026492498183761516 0.00018515128154587384 0.0006046635091305656 0.000733981270513528 0.0007736521684632104 0.0006613807225917442 -0.00024546357300622886 -0.00024104681519290986 -0.0002180269508813449 0.00014570733569968565 -8.072388448511549e-05 -0.00024219205322659082 -0.00021942496291388108 -0.0002427840235671849 0.0003182482827853911 0.0009257417022062606 -0.0001662449946986016 -0.0002462440546374751 -0.00023040350068545556 -0.00023801494369551462 -0.00017252401029987108 -0.00024969616515331864 -0.0002469490988165533 -0.00023896673342597394 -0.0002498847712362355 -0.00022681625376642087 -0.00023458797846658634 -0.00022288448537495747 -0.00023560374509813402 -0.00022690908635122564 -0.000226285701312153 -0.00024316021257495945 -0.0002082378248469852 -0.00021866247188263757 -0.0002142131584917216 0.0004166620182878753 0.0004700160615693083 0.0009526843488415303 -0.00023429019527378467 -0.00025050910226342103 -0.00023284547458521048 -0.00021234477584401674 -0.00019769152512858236 -0.00010395995432618368 -0.00022835303527633937 -0.0002224234728217051 -0.0001844362080049391 -0.000217401181115255 -0.00020145549713939488 -0.0002082256782335389 -0.0001838719283529872 -0.00019668553052056367 -0.00019589257504531998 -0.0002082627020667155 -0.00019598004670362223 -0.00021055166509715187 -0.0001837133330847256 -0.00016016738519070565 -0.00019273363553485407 -0.00017733151883047332 -0.00019949843775482397 -0.00017153922987585925 -0.00018015534483039648 -0.00020779455231617904 -1.815261617539093e-05 -0.0001641384449475191 -0.0001741527251976128 -8.524052862374623e-05 -0.00017242762129238053 -0.00018825753251612993 -0.00013561067225698541 -0.0001441808999190265 -0.0001767657419861193 -0.00017583837590273547 -0.00015980437745538413 -0.0001512407287279995 -0.0001519986496344682 -0.00013703245646352544 -9.659445252143953e-05 -0.00016367688807250423 -0.0001238837493290238 -0.00014267700341818727 -0.00016398463456975492 -1.8147799296946414e-05 -0.00017959370150235604 -0.00012400172628026802 -0.0002262804434069102 -0.00022308778389908414 -0.00023985468671707167 -0.00018892037802946664 -0.00019990591954786378 -0.00014579626817429325 -0.00023267814814226264 -0.00020175520274995392 -0.00019832887102465125 -0.00020109239723643983 -0.00019028291357291996 -0.00016544155111954952 -0.00011779279437142149 -0.00015971004455918566 -0.00013316489129074898 -0.00013782265798877732 -0.00012309283162169937 -8.99635435618675e-05 -0.00010137361885902759 -0.00010816624520368962 -8.759079094955003e-05 -0.00010026390924460617 -7.058370678804225e-05 -8.366107751418475e-05 -5.9732618720917596e-05 -0.000214594637669954 -0.00014590204535742753 -0.00013490824150886097 -0.00016876534091369102 -0.00014197308696468737 -0.00010447571597911491 -0.00013573917381870534 -0.00015287360223530897 -0.0001661717100384009 -0.00011840497172832243 -0.00010121466396759436 -7.2806137461796e-05 -8.892313954562522e-05 -8.618460346599823e-05 -8.01471768969267e-05 -0.0002233438702456907 -0.00021875989579141894 -0.0002171800920902364 -0.000204392469442707 -0.00021238344128638936 -9.561004224048571e-05 -9.201684950430389e-05 -0.00012503548201415592 -0.00011677195032099858 -7.031037473434734e-05 -4.5689049988195396e-05 -0.00019897824762101198 -0.00019005495633183942 -9.269193772623813e-05 -0.0001230770845368364 -9.384126947846133e-05 -0.00011772125744407076 -0.00020603476881061187 -0.00016269770625381862 -0.00019305107393795067 -0.0001822366118925938 -0.00012776510553911324 -7.018430712231027e-05 -0.00011388918634602832 -0.00019309429693133547 -0.00017285851632772622 -0.0001862555620849689 -0.00012358573630487658 -0.00013812584010619404 -0.00016945206350352056 -0.00016496631716935808 -8.300061489481959e-05 -8.396601345472852e-05 -0.00012093059411671218 -0.0001370272438263738 -0.0001614842753174586 -0.0001322334344481777 -0.0001520549453431541 -0.00013719606485789452 -0.00014987933942608992 -0.00010497751972918083 -0.00011904173424974961 -0.00013963653863626564 -0.00012128972530444472 -0.0001333972516280764 -0.00010601742930395344 -0.00011860777321895213 -9.609995966302235e-05 -0.00015545091967150514 -0.0001484570629567583 -0.00012785179747233988 -0.00015262906379498784 -8.023185459910895e-05 -0.00010007376844669595 -9.193407911494699e-05 -5.0586555258666133e-05 -7.020504501054253e-05 -0.00011177175511583843 -0.00010764014192834139 -6.327940090667526e-05 -6.802290231847263e-05 -0.00010335061941410682 -9.170307421707362e-05 -6.076006026121007e-05 -4.207732375864184e-05 -7.952628506280154e-05 -6.0911279948042334e-05 -0.00010281554819818289 0.001570816830352212 0.0004671469442799446 0.0002890644568702724 0.0004298572931097314 0.0005439041054630616 0.0004341177215921394 0.0009762294752308932 -0.00019008770934268455 -0.00021504062373138886 -0.00015556746358230886 9.244061987466543e-06 -5.0966081127292946e-05 -0.00026821802986400106 -0.00025986789532674313 -0.000255433552281639 -0.00026638552606367424 -0.0002634147694188899 -0.00026993083989105665 -0.0002743338922008714 -0.00026911149992772004 -0.0002711237681163412 -0.0002781393817857992 0.0002730866307824652 -0.00018853876970432534 -0.00010335367334494557 -0.00012017147674281244 -0.00011520657519955782 -9.862646325731383e-05 -5.042831984888201e-05 -8.988100116888216e-05 -6.654561892429408e-05 -7.374418039052204e-05 -8.420358768531292e-05 -5.1063072429916674e-05 -6.526124074501293e-05 -6.182513987568852e-05 -5.5192959061608446e-05 -3.5059555191457163e-05 -3.620211380282882e-05 -5.450343731467372e-05 -4.2735986743233634e-05 -2.88619080622104e-05 -2.4006538576765373e-05 -2.474486550318875e-05 -1.7854831921510566e-06 1.4694988070399344e-05 -1.4940882114255483e-05 -1.5616433386882348e-05 -6.051720564790459e-06 -1.12696157637935e-05 8.207220258370444e-06 9.207467993368583e-06 2.844956703993838e-05 -9.876850861579783e-06 3.0952150499934564e-06 -5.7397684957590095e-06 1.3344818381001676e-05 -7.188204181249105e-05 -3.976222342755276e-05 -3.789421158162606e-05 -4.4401245631478696e-05 5.576270285878355e-06 3.926811160502142e-05 -1.1020016993794107e-05 -3.149489156835883e-05 2.67582430116473e-05 1.887948256447609e-05 3.141354761975979e-05 1.919262370922421e-05 3.4492279924314435e-05 3.391957872729821e-05 2.3382610226685627e-05 5.176971421504922e-05 1.1260099083549642e-05 1.9889660749563735e-05 4.4390048253562353e-05 2.8371975149051195e-05 8.940554433421456e-05 2.7903529542622517e-05 4.950459962998777e-05 4.413678174032047e-05 6.586900403573875e-05 4.71004192032727e-05 5.6807996604302135e-05 4.003159741548493e-05 4.45041431487098e-05 3.8756073149641895e-05 5.9011034670396424e-05 5.5970730674445605e-05 4.9805166058696445e-05 4.667865483656945e-05 5.1223931978354165e-05 6.889990593010226e-05 8.243452978921306e-05 5.986495042819171e-05 6.879093523131418e-05 6.140206369369495e-05 7.302808524091032e-05 7.114087035583295e-05 7.812018502594856e-05 5.351356972448001e-05 5.6707539923761934e-05 6.384952759006553e-05 6.609218675027852e-05 7.432547519731519e-05 6.649005142399521e-05 6.752553056337553e-05 5.135914739888397e-05 3.176078545664319e-05 2.792405038260647e-05 -1.5973045848353767e-05 -4.1064907888606384e-06 2.2466980697773523e-05 6.29812041895188e-05 7.626062213835946e-05 7.462607979120754e-05 8.75244035732033e-05 4.140591127930834e-05 -6.076181894831023e-06 1.8159880920890196e-05 1.4422124001410363e-05 7.13165306118592e-05 7.83390137993349e-05 8.314474560201207e-05 8.049360593837454e-05 3.840738073894472e-05 -1.6108777335674862e-05 2.1636801912292196e-05 7.738602728617516e-05 8.486600441526386e-05 7.677179143007005e-05 8.454215214758485e-05 8.885041215523604e-05 9.308870899973642e-05 9.077545842834399e-05 9.459389967944528e-05 8.842770279160264e-05 8.454139140871316e-05 7.032406079010937e-05 6.884662720858365e-05 6.491697562189675e-05 5.5369943687503735e-05 2.987346689221031e-05 8.318717332067063e-05 8.251338316353901e-05 4.637939761665015e-05 7.340336291398714e-05 4.8672364435854715e-05 3.8794104180958946e-05 5.7743409414830955e-05 2.5506217837306735e-05 3.586456499678046e-05 3.88861976242507e-05 6.85833856022225e-05 6.251209585375511e-05 5.191877920111491e-05 5.715445921513279e-05 5.775010295691154e-05 4.872292959258427e-05 8.269944462883897e-06 4.874165887140455e-05 2.6302403115580145e-05 4.662309432799951e-05 3.975775700204778e-05 2.8715291004602335e-05 2.676643470123083e-05 3.564369756575663e-05 -5.098314484923406e-07 1.1253588356569514e-05 1.440483472567405e-05 4.03945556182973e-06 5.155712703622931e-06 -2.2966209258411793e-05 -7.71588556127416e-06 -1.5421104469716993e-05 -1.4611855887353474e-05 -4.514191022874406e-05 -2.0493254226781145e-05 -3.08799699879141e-05 -4.801768347765666e-05 -3.0500742634249176e-05 -1.3115884183371573e-05 -3.530696206309892e-06 -4.607399896111215e-05 -1.4950367460830433e-05 7.332813106752926e-06 -3.2765569115368475e-05 -3.45696660171301e-05 -2.7944688212358723e-05 -6.304465060875619e-05 5.888232353822023e-06 1.7804360705117804e-05 3.7706495895628246e-05 2.0369690287740184e-05 3.958076842675027e-05 -4.556894533818265e-06 -4.3060938546753815e-05 -4.4165328066063364e-05 -2.5654601910833535e-05 -6.26369332253948e-05 -7.883397273906742e-05 -7.987970414902189e-05 -7.855607683513978e-05 1.9559221308951423e-05 1.414723519201677e-05 2.930667301577768e-05 -8.731469270580175e-06 5.458704244979131e-05 -7.523225836021412e-06 -2.9984336973816072e-05 -3.9174073194204144e-05 -6.351922120182632e-05 -1.3148507118294267e-05 3.9226031478277653e-05 -3.99853295932724e-05 5.6117252222650275e-06 5.496603393253572e-05 4.371923723708799e-05 3.226304899943468e-06 2.1026194375062132e-05 4.7606875587182556e-05 5.504884553046699e-05 5.320101515556616e-05 7.030386457352957e-05 2.1357251006756127e-05 7.490019802973423e-05 3.628885717644838e-05 7.606154664284972e-05 6.486001074334767e-05 8.375689268674638e-05 4.587301125326234e-05 5.792502231725142e-05 6.712356333466575e-05 8.891650182271172e-05 8.075068823823973e-05 7.720849831537e-05 8.289625613172842e-05 7.3511951360679e-05 8.581420752965201e-05 8.817878118928651e-05 8.251123819674859e-05 8.590931884868013e-05 7.770909278092552e-05 6.489147306125934e-05 6.644892626559007e-05 2.966417028365345e-05 3.031769386251753e-05 -7.532647461371877e-05 -0.00011774433337808707 -0.00012420477123530955 -0.00012533750432845562 -0.00010623084500931039 -0.00011048652008327676 -9.825932056859818e-05 -8.410148135729132e-05 -8.87652839826598e-05 -0.0001038449709827413 0.00031906287744910426 0.0004943937279004849 -2.1186171399934935e-05 0.00018828758417839038 -2.9219740061800805e-05 -3.4889420727997665e-05 4.25268538675529e-05 6.487000521538042e-05 -4.257357855822337e-05 1.5934320233137917e-05 -6.164962151043749e-06 9.814240002250956e-06 8.85133143107046e-05 1.1784865685428314e-06 1.484439710859401e-05 -2.859632307038611e-06 1.7324579292463278e-05 2.7719241440736046e-05 -3.32811553592606e-05 -4.665932594539808e-05 -6.192646543405485e-05 -7.422897302017796e-05 -5.643445138907815e-05 3.145301757055675e-05 5.126582171223975e-05 -8.376851323219061e-05 0.0003041104878101748 -2.092711046341724e-05 -4.7680152682594755e-05 0.0002939478621423876 -3.810070164791279e-05 0.0008243246684936905 0.0007031659780362163 -6.131143852153364e-05 5.8606220047319634e-05 3.768824344798672e-05 9.583533408329717e-05 -6.261382320754756e-05 -3.4999868465534345e-05 2.99948018853024e-05 -1.907116954191241e-05 8.608030986717099e-05 2.7266391136675545e-05 -8.032065925763042e-05 0.0004463303200928004 0.0006888222792137134 0.0006616425833140059 0.0006785567599670417 -3.0445840155078443e-05 1.2553975575204066e-05 0.000662728645819134 0.0006619726960124655 0.00010347041702476795 0.0009085571486520779 -8.152407814044923e-05 -5.172350880635903e-05 -1.5136553338844e-05 0.00011931965753009087 0.0005368840439782248 0.0007251498263309784 -5.646372544320586e-05 3.495182550522958e-06 0.0002145127817069937 0.0006115036399913719 -1.6471728035675114e-06 0.0008344293212310569 0.0003248766287211227 0.0002958035537117559 0.00021839987750227026 0.0007164799640823277 -1.0518688300375766e-05 -2.4213713158525852e-05 3.268092590306823e-05 1.7619581748968814e-05 5.1503819699728165e-06 -3.3475336978804196e-05 6.734489574592017e-05 6.344622177355102e-05 8.111710916286232e-05 7.029688404705344e-05 7.329771412824115e-05 0.00022649234612984962 0.000665958606416501 -1.8351434217047864e-05 -2.163613826574173e-05 0.0006355739015067544 0.0008305211464303602 8.719907521167763e-05 7.538866918042581e-05 -6.651774491698014e-05 -6.72934113241632e-05 0.0010160151568693531 0.000711062474594038 7.333710469297925e-05 0.0009172599523911146 7.068240654087297e-05 9.356627110332401e-05 0.0007379079919397388 6.796881193240634e-05 5.836209029637438e-05 8.630930889821814e-05 0.0006972027320858127 9.424312308869394e-05 0.0007023385428198983 0.0006971219142280342 5.1814244497707307e-05 8.430412507780156e-05 0.00010044694356336742 9.084108980040124e-05 8.316804173295355e-05 9.935041889257666e-05 7.61155744779526e-05 9.427242477577816e-05 7.949649278964488e-05 9.335493251506377e-05 9.897388890105163e-05 9.085627439916218e-05 9.553342551625008e-05 9.51357205942047e-05 9.754625477327753e-05 8.335326234241773e-05 7.503374468911288e-05 8.175451457191018e-05 7.933182349996255e-05 8.891111707829689e-05 8.389264969585883e-05 -4.835253362961003e-05 4.572845695811496e-05 6.436406581695656e-05 4.871258929700564e-05 5.561171614002273e-05 4.551572042655175e-05 6.695088965520477e-05 5.947511986573988e-05 8.493364526832366e-05 7.109233905909538e-05 9.326753760219333e-05 2.7308139338434027e-05 2.3801409384032846e-05 0.0005034468771679762 0.00066022437905118 0.0006208637940335036 0.0006833040532262507 4.738292739629984e-05 -4.812357778841342e-06 -3.035463582983691e-05 0.0006819300796431227 0.0005289929089359841 3.2201281759025534e-05 4.172444977792089e-06 0.0006442334855096465 -7.504574007701926e-05 0.0010137902881944471 0.0009820784265657408 6.452305522255974e-05 6.028086740042967e-05 4.400172067742073e-05 5.0697645407198516e-05 9.876650936613707e-05 9.822019540762394e-05 9.612049892718454e-05 9.762668581736913e-05 9.086934570503025e-05 9.633402009003736e-05 9.559870661377487e-05 9.914036124585298e-05 9.869650530274766e-05 8.892985506042123e-05 9.045681906273951e-05 9.205298588468732e-05 9.296458154746588e-05 9.831378490332207e-05 8.34075177932059e