<?xml version="1.0"?>
<VTKFile type="UnstructuredGrid"  version="0.1"  >
<UnstructuredGrid>
<Piece  NumberOfPoints="1289" NumberOfCells="2413">
<Points>
<DataArray  type="Float64"  NumberOfComponents="3"  format="ascii">0 0 0  0 0.41 0  2.2 0.41 0  2.2 0 0  0.1 0.1 0  0.1 0.3 0  0.8 0.3 0  0.8 0.1 0  0.25 0.2 0  0.248976 0.210065 0  0.245948 0.219718 0  0.241038 0.228563 0  0.234448 0.23624 0  0.226448 0.242432 0  0.217365 0.246888 0  0.207571 0.249423 0  0.197468 0.249936 0  0.187467 0.248404 0  0.17798 0.24489 0  0.169395 0.239539 0  0.162062 0.232569 0  0.156283 0.224265 0  0.152293 0.214968 0  0.150257 0.205058 0  0.150257 0.194942 0  0.152293 0.185032 0  0.156283 0.175735 0  0.162062 0.167431 0  0.169395 0.160461 0  0.17798 0.15511 0  0.187467 0.151596 0  0.197468 0.150064 0  0.207571 0.150577 0  0.217365 0.153112 0  0.226448 0.157568 0  0.234448 0.16376 0  0.241038 0.171437 0  0.245948 0.180282 0  0.248976 0.189935 0  1.1 0 0  1.1 0.41 0  0.1 0.2 0  0.45 0.1 0  0.45 0.3 0  0.55 0 0  0.275 0.1 0  0.275 0.3 0  0.275 0 0  0.55 0.41 0  0 0.205 0  0.825 0 0  0.825 0.41 0  0.275 0.41 0  0.1 0.15 0  0.1875 0.1 0  0.1 0.25 0  0.1875 0.3 0  0.132322 0.2 0  0.241426 0.253518 0  0.241426 0.146482 0  0.264574 0.17974 0  0.264574 0.22026 0  0.138434 0.187348 0  0.153372 0.150948 0  0.148413 0.164094 0  0.176495 0.136535 0  0.22768 0.143571 0  0.138434 0.212652 0  0.148413 0.235906 0  0.176495 0.263465 0  0.22768 0.256429 0  0.23125 0.3 0  0.24769 0.24094 0  0.23125 0.1 0  0.24769 0.15906 0  0.26253 0.193641 0  0.190482 0.137872 0  0.166753 0.146661 0  0.157737 0.244461 0  0.190482 0.262128 0  0.203107 0.261264 0  0.253635 0.22977 0  0.203107 0.138736 0  0.253635 0.17023 0  0.261028 0.206206 0  0.167707 0.251809 0  0.143629 0.224191 0  0.215302 0.2591 0  0.270465 0.245894 0  0.215302 0.1409 0  0.270465 0.154106 0  0.284052 0.202587 0  0.14375 0.3 0  0.209375 0.3 0  0.225966 0.278501 0  0.209375 0.1 0  0.225966 0.121499 0  0.211613 0.273759 0  0.211613 0.126241 0  0.143629 0.175809 0  0.1 0.175 0  0.133484 0.164832 0  0.144491 0.249539 0  0.1 0.225 0  0.133484 0.235168 0  0.3625 0.3 0  0.25691 0.253381 0  0.25691 0.146619 0  0.277205 0.188698 0  0.184724 0.275712 0  0.237372 0.268285 0  0.184724 0.124288 0  0.237372 0.131715 0  0.197578 0.273149 0  0.193656 0.286994 0  0.197578 0.126851 0  0.193656 0.113006 0  0.122953 0.187671 0  0.118362 0.153758 0  0.155372 0.258107 0  0.122953 0.212329 0  0.118362 0.246242 0  0.276394 0.27264 0  0.276394 0.12736 0  0.280965 0.170013 0  0.253125 0.3 0  0.14375 0.1 0  0.253125 0.1 0  0.269489 0.26014 0  0.269489 0.13986 0  0.303639 0.184297 0  0.165625 0.3 0  0.134742 0.273113 0  0.257831 0.274737 0  0.255279 0.128499 0  0.3625 0.1 0  0.165625 0.1 0  0.162031 0.132368 0  0.134955 0.126405 0  0.149334 0.125568 0  0.142936 0.139597 0  0.12695 0.140259 0  0.242514 0.285501 0  0.242514 0.114499 0  0.1 0.125 0  0.117483 0.12555 0  0.11154 0.139776 0  0.121875 0.1 0  0.109143 0.1125 0  0.126805 0.114 0  0.220313 0.29129 0  0.351562 0.287369 0  0.207222 0.2866 0  0.220312 0.10871 0  0.1375 0 0  0.20625 0 0  0.207222 0.1134 0  0.11722 0.17118 0  0.1 0.1625 0  0.0778409 0.16875 0  0.0862762 0.15625 0  0 0.15375 0  0 0.1025 0  0.11722 0.22882 0  0.1 0.2375 0  0 0.3075 0  0.0862762 0.23125 0  0.0598995 0.222547 0  0.0860223 0.2125 0  0.289584 0.181469 0  0.300267 0.16446 0  0.163832 0.269071 0  0.149597 0.273325 0  0.1 0.275 0  0.268498 0.285953 0  0.31875 0.3 0  0.294154 0.254672 0  0.296875 0.3 0  0.293558 0.271845 0  0.285095 0.286799 0  0.324298 0.264316 0  0.307866 0.263745 0  0.317093 0.234901 0  0.315485 0.281219 0  0.316547 0.250625 0  0.344693 0.243731 0  0.331592 0.251147 0  0.35129 0.270663 0  0.338689 0.263683 0  0.340625 0.3 0  0.249849 0.264383 0  0.265097 0.11422 0  0.284688 0.156136 0  0.242188 0.324017 0  0.0856613 0.2625 0  0.132812 0.0612217 0  0.264062 0.0612217 0  0.198437 0.07598340000000001 0  0.0860223 0.1375 0  0.0794526 0.191089 0  0.285228 0.140397 0  0.298655 0.148737 0  0.31875 0.1 0  0.327335 0.15374 0  0.296875 0.1 0  0.312289 0.155283 0  0.313348 0.135607 0  0.321802 0.173916 0  0.298433 0.134116 0  0.112124 0.2625 0  0.127526 0.259083 0  0.121875 0.3 0  0.0682687 0.241503 0  0.1 0.2875 0  0.117762 0.28125 0  0.107813 0.3 0  0.103906 0.313849 0  0.0778409 0.28125 0  0.1375 0.41 0  0.0862762 0.29375 0  0.08886860000000001 0.24375 0  0.307812 0.338778 0  0.307812 0.292227 0  0.33216 0.279164 0  0.387888 0.266414 0  0.264063 0.31948 0  0.110937 0.07598340000000001 0  0.242188 0.07598340000000001 0  0.319914 0.11839 0  0.340625 0.1 0  0.334448 0.133793 0  0.329687 0.108539 0  0.346259 0.118491 0  0.360334 0.173636 0  0.327539 0.205033 0  0.132812 0.288712 0  0.362436 0.278836 0  0.368105 0.259418 0  0.4125 0.41 0  0.329687 0.324017 0  0.329687 0.292306 0  0.285938 0.318952 0  0.417187 0.338778 0  0.324481 0.14148 0  0.351562 0.106771 0  0.40625 0.1 0  0.341028 0.168342 0  0.319221 0.190479 0  0.335292 0.184501 0  0.305563 0.20794 0  0.220313 0.31948 0  0.132812 0.332772 0  0.0865876 0.311259 0  0.0598995 0.302453 0  0.0906541 0.343255 0  0.353543 0.255837 0  0.36574 0.237633 0  0.405007 0.254279 0  0.275795 0.352123 0  0.4125 0 0  0.35493 0.137394 0  0.366563 0.120618 0  0.35917 0.205246 0  0.198438 0.318952 0  0.0626109 0.263892 0  0.40625 0.3 0  0.354809 0.155936 0  0.386512 0.146872 0  0.373101 0.159939 0  0.384375 0.1 0  0.343394 0.19929 0  0.350682 0.185683 0  0.368101 0.189748 0  0.344016 0.221511 0  0.391108 0.213329 0  0.376279 0.204783 0  0.398843 0.182768 0  0.375804 0.222746 0  0.390665 0.196958 0  0.394004 0.23518 0  0.359883 0.222828 0  0.419908 0.204359 0  0.404243 0.204783 0  0.412615 0.224526 0  0.20625 0.41 0  0.165625 0.325257 0  0.0347982 0.244954 0  0.379558 0.247154 0  0.34165 0.147603 0  0.372264 0.136992 0  0.388988 0.121989 0  0.373437 0.108554 0  0.351562 0.31948 0  0.391367 0.16527 0  0.399572 0.223324 0  0.452011 0.227371 0  0.40877 0.239392 0  0.431491 0.237337 0  0.421224 0.250459 0  0.449619 0.262098 0  0.418865 0.276779 0  0.437063 0.252274 0  0.415673 0.263227 0  0.430988 0.266772 0  0.402767 0.273419 0  0.452967 0.244883 0  0.428125 0.3 0  0.408502 0.286186 0  0.384375 0.3 0  0.392267 0.285807 0  0.465927 0.219339 0  0.43489 0.283846 0  0.376424 0.286289 0  0.625 0.3 0  0.473533 0.205186 0  0.461713 0.255517 0  0.5375 0.3 0  0.465725 0.235405 0  0.44631 0.201425 0  0.471875 0.3 0  0.494307 0.227729 0  0.459448 0.206736 0  0.462294 0.180792 0  0.478933 0.227536 0  0.486793 0.21381 0  0.486322 0.251373 0  0.50065 0.215318 0  0.54005 0.175389 0  0.474633 0.189893 0  0.512916 0.208697 0  0.49531 0.199967 0  0.475889 0.175275 0  0.625 0.1 0  0.459311 0.153933 0  0.513645 0.242704 0  0.392892 0.248539 0  0.374815 0.271913 0  0.365974 0.14871 0  0.395312 0.109184 0  0.417061 0.123981 0  0.483196 0.277003 0  0.381967 0.179632 0  0.429898 0.219374 0  0.433473 0.206165 0  0.43149 0.181038 0  0.444208 0.215487 0  0.472985 0.247309 0  0.49375 0.3 0  0.475579 0.262714 0  0.49916 0.274293 0  0.501175 0.184809 0  0.514164 0.225681 0  0.543648 0.214977 0  0.5341630000000001 0.23481 0  0.527396 0.216171 0  0.5375 0.1 0  0.534548 0.202315 0  0.561545 0.192513 0  0.5494289999999999 0.201221 0  0.570923 0.218346 0  0.412582 0.149833 0  0.489327 0.264745 0  0.502439 0.254775 0  0.462391 0.271166 0  0.496775 0.241732 0  0.5294410000000001 0.268606 0  0.482812 0.291099 0  0.46879 0.285038 0  0.452663 0.284065 0  0.51789 0.257882 0  0.53408 0.252026 0  0.560142 0.243543 0  0.545708 0.243474 0  0.547532 0.229019 0  0.55282 0.265323 0  0.398971 0.153424 0  0.400349 0.135684 0  0.410135 0.168145 0  0.428823 0.161323 0  0.415266 0.183779 0  0.329687 0.0810483 0  0.395312 0.0612217 0  0.373437 0.318952 0  0.439062 0.324017 0  0.561816 0.229354 0  0.585029 0.239287 0  0.431827 0.139854 0  0.446796 0.168929 0  0.351562 0.07598340000000001 0  0.395313 0.318944 0  0.54337 0.150762 0  0.460937 0.31948 0  0.418412 0.137529 0  0.428125 0.1 0  0.442783 0.152332 0  0.450742 0.134294 0  0.373437 0.0805201 0  0.384383 0.342558 0  0.482812 0.318952 0  0.429239 0.127457 0  0.444274 0.117405 0  0.426548 0.113815 0  0.49375 0.1 0  0.488954 0.113984 0  0.457973 0.121842 0  0.471621 0.137346 0  0.515625 0.325257 0  0.48125 0.41 0  0.417187 0.07598340000000001 0  0.496363 0.126778 0  0.479043 0.155715 0  0.439062 0.0805201 0  0.481795 0.126919 0  0.471875 0.1 0  0.489227 0.142159 0  0.515625 0.1 0  0.520062 0.147117 0  0.501244 0.161791 0  0.505431 0.112984 0  0.505344 0.14029 0  0.526563 0.119081 0  0.5181750000000001 0.131908 0  0.539868 0.136937 0  0.460937 0.108383 0  0.474242 0.114415 0  0.460937 0.0810483 0  0.487841 0.167168 0  0.526563 0.0612217 0  0.526563 0.106406 0  0.537619 0.112743 0  0.58125 0.1 0  0.559375 0.1 0  0.482812 0.08105569999999999 0  0.471883 0.0587655 0  0.570312 0.129396 0  0.548437 0.07598340000000001 0  0.504687 0.08105569999999999 0  0.49375 0.0470127 0  0.570312 0.112663 0  0.592798 0.12103 0  0.553986 0.12103 0  0.570312 0.0805201 0  0.48125 0 0  0.114787 0.2 0  0.160769 0.284765 0  0.175816 0.288361 0  0.162602 0.116048 0  0.154687 0.07598340000000001 0  0.176562 0.0805201 0  0.0598995 0.147547 0  0.307812 0.109924 0  0.291279 0.117157 0  0.278491 0.112989 0  0.285937 0.07598340000000001 0  0.307812 0.0805201 0  0.296928 0.196743 0  0.318141 0.218507 0  0.330208 0.227509 0  0.301397 0.225668 0  0.302706 0.241401 0  0.292574 0.21424 0  0.282762 0.230935 0  0.284351 0.244775 0  0.269553 0.23261 0  0.278572 0.217242 0  0.226924 0.342606 0  0.446928 0.185396 0  0.515625 0.3 0  0.504687 0.288879 0  0.515256 0.276534 0  0.529479 0.285328 0  0.58125 0.3 0  0.541969 0.272936 0  0.559375 0.3 0  0.556796 0.282529 0  0.543473 0.287206 0  0.581429 0.267774 0  0.566728 0.271171 0  0.570869 0.255585 0  0.577404 0.283865 0  0.603125 0.3 0  0.597531 0.28035 0  0.570312 0.338778 0  0.592188 0.292492 0  0.603513 0.256094 0  0.614063 0.286265 0  0.610329 0.27064 0  0.632708 0.251285 0  0.657223 0.261594 0  0.618789 0.257807 0  0.614188 0.22987 0  0.630935 0.265614 
[...]
<PointData  Scalars="p"> 
	<DataArray  type="Float64"  Name="p"  format="ascii">
0.0007010924555477199 0.0006749707385762744 -1.7695097263322652e-07 -6.231244839884164e-08 0.0007602743752903055 0.0007527370524369926 5.886666519893795e-05 5.700111205663347e-05 -0.0002645430324275304 -0.00027853210755087826 -0.0003329224362417258 -0.00033633963765335173 -0.00033001575195085934 -0.0004065751580963782 -0.00034978005679001817 -0.00012950390307021556 -0.00029203838406348604 -0.0004742091748779373 -0.0003184497266579315 1.3254622722517608e-05 0.0005180066691255848 0.0011601211711445914 0.0016810996678350396 0.00200964816709994 0.002004325553442454 0.0016634253918419134 0.001144912953075412 0.0005047066608891358 -9.057741779735998e-05 -0.0003281888448946937 -0.00044362775128820275 -0.0002992683689389658 -0.0001276133444192101 -0.000345664528192952 -0.0004026132378362867 -0.0003240487607599103 -0.00033275506244612407 -0.00033202056865558343 -0.00027937433412697824 8.743717511599357e-05 8.443683274707749e-05 0.0014013232774351824 -0.00015087470190117285 -0.00015065260363088576 -7.406958257280147e-05 -7.97064934500623e-05 -8.65005769138763e-05 0.00017251513011374062 -5.746660165620097e-05 0.000997573168450439 4.0713613170860794e-05 4.1863530153205565e-05 0.0001956083391772328 0.0010705044750639618 0.00027010340347905393 0.001070228447869066 0.00028083950564329965 0.001820001592413504 -0.00022579254451622518 -0.0002243300737270735 -0.0002826460576639715 -0.0002850936659097543 0.0017701624952805928 0.0006038159736122017 0.0009989449812540404 1.3142594650235366e-06 -0.00034793127538243403 0.00178370655290809 0.00100774414382893 1.862433823823129e-05 -0.00034835153552520263 4.403953394593049e-05 -0.00020097114910189775 4.2674320830904905e-05 -0.0002023839896030576 -0.00027967377370439724 -0.00019427309706345584 0.0001223286947578052 0.0005038374483080089 -0.0002030428292376924 -0.0001738764409464634 -0.0003124626515872334 -0.00017600108675319643 -0.0003133506791395458 -0.00027965746708451847 9.576687840500066e-05 0.0014403493774893703 -0.0001624432618980427 -0.00027205573295539055 -0.00016112629802650177 -0.00027062176676819036 -0.0002725554947793742 0.0005938669977042612 0.00012375327546776662 -0.00017863225649123365 0.00015282024462480272 -0.0001681037249080274 -0.00011464497705632427 -0.00011478511878298644 0.0014258960216101315 0.0012799164650167205 0.0012791287485587304 0.0008217251409801095 0.0013001989865138205 0.0013020403419562866 -0.0001687848457250442 -0.00024067757425617832 -0.0002428231674205167 -0.00027662742059027034 8.70728809339373e-05 -0.0002078496054407236 7.935896698239559e-05 -0.0002136159486496432 -3.997118593649411e-05 0.00014022529956875864 -2.6570162697998643e-05 0.00014477654034159528 0.0016067327095404206 0.0011329441072014976 0.0005491224150120397 0.0016053384029251186 0.0011387775629367342 -0.00021722925088466582 -0.00022496151464621768 -0.0002742057791845346 -5.798222193031435e-05 0.0005929350447354432 -3.8492033463255174e-05 -0.00023396371396235938 -0.0002376756345825188 -0.0002655913192159439 0.00044345578710102367 0.0007761836803643045 -0.0002311473516315341 -0.000219015291696677 -0.00016915932366715178 0.00046472367662920075 0.0004070866160634863 0.0007552368611803649 0.000612792444280761 0.0007016603789902438 0.000909305425011047 -0.00010308453766710045 -9.275954129773531e-05 0.000879202262293753 0.0008452943039390872 0.0009692467256172408 0.0007035423200858409 0.0007909824604674265 0.0007420017125457233 -2.783662553456423e-06 -0.0002036535779644775 2.6297409015572197e-05 -5.146004056079556e-07 0.0006153493747139419 0.00040540074287782505 4.6373142510445323e-05 0.0013439443618151233 0.0011726549878660194 0.0011340574129715681 0.001079687364854043 0.0009312919841178492 0.0007894201632089414 0.0013464031275602028 0.0011940011623965355 0.0007581414628306762 0.001154375054642725 0.0010894569165607732 0.001250032205221267 -0.0002712857461233295 -0.00026676165039799535 0.00035465489038309737 0.0005890904767776215 0.0008787178181794727 -0.00017234107869572575 -0.00014519690235693773 -0.0002733550506050914 -0.0001397506319356147 -0.00025269216149523564 -0.00018975174600146836 -0.00025470901183071977 -0.00025026931334945447 -0.00026131027147007033 -0.00022079093659491093 -0.000255672375499274 -0.00025039882533879577 -0.0002547194051975743 -0.00023728885431491896 -0.0002446264086348309 -0.00017802712027424557 -0.0002285690744425914 -0.00018965214954910897 -0.0002669965791204494 0.00014317891797617786 0.0009714999361990133 0.0006104461380534681 0.00013635320849797559 0.0003452151463019237 0.0009519071134176924 0.0012120932682816426 -0.00026110595350037786 -0.00026340585313193665 -0.0001421429963916552 -0.00025684402497399655 -0.00014585863525600891 -0.00026233933102552014 -0.00025457796018659194 -0.0002588170230442752 -0.00025701906874531845 0.0009571657226411424 0.0009148926930976738 0.0007003115165312316 0.001040226551140065 0.0008189427604496428 0.0008009409805571019 0.0007317570623591354 0.0006979920591452421 0.0008482508161635213 0.000587392694332049 0.00079496586693757 0.0010982699283439926 1.9801516014328244e-05 -0.0001844122838083379 -0.00023156067471684615 -0.00022496353913574989 4.7228719593540275e-05 0.0006843399976199981 0.00015045313598466243 -0.00023040002679405495 -0.00017486264995983508 -0.0002448373012335339 -0.00019586305706756566 -0.00022430465627345825 -0.0002435479973316174 -0.00025610874992860214 0.0006826038864852536 -0.00022653482864606366 -0.00023662640730559348 -5.378689315763412e-05 -6.247480253844336e-05 -0.0002017843975404802 -1.740363416408318e-05 -9.791843674678531e-05 -0.00025335461010306335 -0.00018908444481831796 -0.0001672354559552657 -0.0002519745474326454 -0.0002594609974891706 -0.0002533261004889212 -0.0002648204340718589 0.00018506163145107864 0.0006046202589842617 0.000733922456848659 0.0007735869934445195 0.0006613259568006005 -0.0002455049614007874 -0.00024108355882132088 -0.00021832039620938785 0.00014560496487932937 -8.0505169957235e-05 -0.0002421830569902524 -0.00021937609315755813 -0.000242794199137038 0.0003181848461296066 0.0009256760923255688 -0.0001666958135143742 -0.000246270195166393 -0.00023036134309967408 -0.00023803554040520026 -0.0001723711976381071 -0.0002496866495136511 -0.0002469644220030329 -0.00023899620601300294 -0.0002498622179872269 -0.00022689221896250887 -0.0002346244455144271 -0.00022289406804764527 -0.00023564729057241852 -0.0002269517041272589 -0.0002264237199034436 -0.00024317213925644283 -0.00020834716150827271 -0.0002187403733733808 -0.0002144177599782483 0.00041662187151522587 0.0004699737596970482 0.0009526186563911297 -0.00023439207231637396 -0.0002505216882991689 -0.00023282878346860615 -0.00021221676331338214 -0.0001975894903994774 -0.00010413028936837471 -0.00022834184398820277 -0.00022255347802368407 -0.00018504871837857345 -0.00021765427101247314 -0.00020192527216553015 -0.00020867161159631337 -0.00018483002937397477 -0.00019723734528123333 -0.00019657187282335614 -0.00020871481929746937 -0.0001966524162109996 -0.000210918616018466 -0.00018458287291301054 -0.00016083442267076324 -0.0001931969579047787 -0.00017763757035463572 -0.0001998190444868442 -0.00017214234949237153 -0.00018094191724690346 -0.0002080232544987618 -1.7182906674465235e-05 -0.00016438112228916015 -0.00017528879342711956 -8.64257923113484e-05 -0.00017337448204379885 -0.00018834016436601673 -0.00013673021802668243 -0.00014535702556108272 -0.00017701520151237513 -0.00017542085481846238 -0.00016079193708984238 -0.00015186030001547294 -0.00015355839445765074 -0.00013780609601236202 -9.540446022061202e-05 -0.00016342907026349482 -0.0001244113773459889 -0.00014274810249171975 -0.00016326668510048754 -1.9212325379513516e-05 -0.00017875653856707673 -0.00012580663736635678 -0.00022645825057810887 -0.0002232459158983503 -0.00023986850516752257 -0.0001887266718616745 -0.00019955065040698982 -0.0001473075775891168 -0.00023270715299422018 -0.00020203144197110108 -0.00019847614207238416 -0.00020094709972090014 -0.00019062450798753905 -0.00016670503965415288 -0.00011907345131105864 -0.0001611364828146246 -0.00013487648386152471 -0.0001371803115011165 -0.00012442637728067463 -9.089483024327631e-05 -0.00010311521854164597 -0.00010914140678788455 -8.673613183106702e-05 -0.00010047409857225024 -7.028371768800342e-05 -8.382509570155912e-05 -6.0641969380439775e-05 -0.00021439459152796563 -0.00014755124479477052 -0.00013671078648886715 -0.0001699835861285484 -0.00014355638774624237 -0.00010634349484974008 -0.00013708703119499457 -0.0001541178205385936 -0.0001671992571374817 -0.0001203743004180564 -0.00010318173636395911 -7.446084035424114e-05 -9.07532884867763e-05 -8.76914416279239e-05 -8.18105662644716e-05 -0.00022326061731110423 -0.00021859160401659439 -0.0002170867236225694 -0.00020409219362093006 -0.00021235026910290355 -9.554809463745332e-05 -9.183230383346042e-05 -0.00012530808066141516 -0.00011740803286068517 -7.170649425376958e-05 -4.668794333441579e-05 -0.00019849340457342446 -0.00018961838166280963 -9.267582494777515e-05 -0.0001234461304221643 -9.224658472180182e-05 -0.00011854521648814947 -0.0002057147266874328 -0.00016223081615388072 -0.00019248332156744993 -0.0001814352279703835 -0.00012761132614055095 -7.04923166331913e-05 -0.00011484279228370102 -0.0001925881668982054 -0.00017215598506909116 -0.00018576595754511526 -0.00012255943937106013 -0.00013692734818247096 -0.00016853340062143596 -0.00016381330799808928 -8.390372652795811e-05 -8.451681388862117e-05 -0.00012062767392518516 -0.00013560007943147153 -0.00016034091986821242 -0.00013175914831811746 -0.00015076359227733863 -0.00013631931134936223 -0.00014845745735177557 -0.0001039511216543397 -0.00011735740522128338 -0.00013824808522490907 -0.00012000905753515716 -0.00013178037257965882 -0.00010466750026756612 -0.00011702052156700955 -9.456232508614436e-05 -0.0001545749462385978 -0.00014737764522281774 -0.0001272297735185096 -0.00015155700980039785 -7.965258370863898e-05 -9.896654118348747e-05 -9.083122625673337e-05 -5.0494587144621084e-05 -6.958072806071889e-05 -0.00011106776797164924 -0.00010711363130431308 -6.255634816368225e-05 -6.751152279635864e-05 -0.00010257411294600312 -9.124317939556273e-05 -6.03015536796811e-05 -4.222985567523315e-05 -7.853343466953966e-05 -6.053624529955517e-05 -0.00010239102246322176 0.0015707548537046217 0.0004671068563940128 0.0002890258585613326 0.0004297730401348349 0.0005438093089361652 0.00043402644485352566 0.0009761690573142789 -0.00019022658609674665 -0.00021502146873967435 -0.00015597406603444025 9.236568108210905e-06 -5.107082570487766e-05 -0.00026812675157832235 -0.0002597816711874275 -0.00025537827752259427 -0.0002662326121801074 -0.00026325730553671743 -0.0002697678589836911 -0.00027407969997352835 -0.00026894288168099307 -0.00027085235039235925 -0.00027791964909042475 0.0002730247663885819 -0.0001883409727249648 -0.00010466423727342691 -0.00012169752344126441 -0.00011696670821134888 -0.00010017915883316636 -5.076438308414385e-05 -9.15562011593439e-05 -6.737989969257914e-05 -7.494271646336738e-05 -8.555446457572186e-05 -5.1825404196048694e-05 -6.640586789559457e-05 -6.313532388629413e-05 -5.5846870049451586e-05 -3.480083733924908e-05 -3.61133443874165e-05 -5.499635127810984e-05 -4.282354479382705e-05 -2.8885032415725115e-05 -2.3282744271314953e-05 -2.423487721577582e-05 -4.5635358697241973e-07 1.7356921900649425e-05 -1.4186761678554709e-05 -1.5607103273815282e-05 -4.583813279126194e-06 -1.0731363244332267e-05 1.0367305957466138e-05 1.0137308486040482e-05 3.120565588736906e-05 -8.399638230215648e-06 5.250503805655337e-06 -4.148411847538535e-06 1.6026073137992213e-05 -7.264268528333792e-05 -3.988117709026954e-05 -3.8102696841160426e-05 -4.515973410735553e-05 7.774545382158778e-06 4.301005690096593e-05 -9.961957757917691e-06 -3.1210214528373345e-05 3.011292183825855e-05 2.1387480705669437e-05 3.382203376262708e-05 2.20480235957012e-05 3.792253225358593e-05 3.726777490525975e-05 2.607279262577068e-05 5.451116570110057e-05 1.3312744745221812e-05 2.1674726956596834e-05 4.786885131598229e-05 2.84880116014514e-05 8.930419112166474e-05 2.9210498987509186e-05 5.3427877470219825e-05 4.4993392512813065e-05 6.950948680523248e-05 5.095288512638237e-05 6.0669287175120575e-05 4.326782298748366e-05 4.688948129748975e-05 4.1392414298985695e-05 6.252318984244386e-05 5.913570722838025e-05 5.325204319235102e-05 4.9702639100515497e-05 5.3914596074237094e-05 7.101654928967177e-05 8.33755425482717e-05 6.34891295133781e-05 7.165568702658085e-05 6.403283385305457e-05 7.374134188011524e-05 7.324474578585899e-05 8.03001146362141e-05 5.5336478450360866e-05 5.889444311555986e-05 6.538580707054514e-05 6.694785926351914e-05 7.400213738138677e-05 6.685104394961522e-05 6.707812680807471e-05 5.271013652084475e-05 3.524519538231518e-05 3.0886567539185714e-05 -1.5104309021818112e-05 -2.893341867393282e-06 2.4691471445026966e-05 6.443905818557482e-05 7.772690929724731e-05 7.7489822993766e-05 8.858079562619508e-05 4.337665185180222e-05 -4.794954603041725e-06 1.884700296781266e-05 1.6374636288011788e-05 7.44173133121187e-05 8.015273261905273e-05 8.465849571912703e-05 8.27304238842823e-05 4.065056627308204e-05 -1.555553971241493e-05 2.392543474822077e-05 7.53798210733178e-05 8.57054521037723e-05 7.693291449660148e-05 8.404045318791054e-05 8.941099152593e-05 9.314265309194932e-05 9.11577644735307e-05 9.363325652525898e-05 8.874622986532547e-05 8.600627608314388e-05 7.071310953722356e-05 6.551083716566034e-05 6.429407142247589e-05 5.5706807932580814e-05 2.7193320508763595e-05 8.225528792620475e-05 8.233540129447247e-05 4.455576698512456e-05 7.223664008733138e-05 4.8200282901135514e-05 3.8400700898819254e-05 5.58206284054354e-05 2.3756690643241464e-05 3.4289534216274695e-05 3.558192044930049e-05 6.646261372843635e-05 5.955952751317247e-05 4.861626557464657e-05 5.32402338766829e-05 5.4154069037083854e-05 4.489187801944837e-05 6.1815226823332235e-06 4.487545669025931e-05 2.3086311663123632e-05 4.4100918087966505e-05 3.607798463496929e-05 2.546026031089979e-05 2.4076428674688477e-05 3.3085096468443394e-05 -1.7884724550813184e-06 8.970944024808702e-06 1.2581851225113725e-05 3.679549617538682e-06 4.169699465405062e-06 -2.2982617270101374e-05 -8.082281937220801e-06 -1.5574602737319785e-05 -1.5091098383604369e-05 -4.459171021063645e-05 -2.1356647611053732e-05 -3.073710673845643e-05 -4.749807793706364e-05 -3.068081407872815e-05 -1.4002632574206223e-05 -5.249625973959719e-06 -4.581984834106599e-05 -1.6312094180711467e-05 4.903462703671597e-06 -3.316813658624846e-05 -3.497536617207762e-05 -2.868769146172738e-05 -6.207636234464869e-05 3.5868198142756976e-06 1.4933590771716414e-05 3.409298056367491e-05 1.786272550229083e-05 3.624197832814418e-05 -6.171304419649903e-06 -4.3219966949312504e-05 -4.415826426112004e-05 -2.6532856275266346e-05 -6.165350763450033e-05 -7.759411159798079e-05 -7.84696306427189e-05 -7.744746362965826e-05 1.6867803291649015e-05 1.154654077713861e-05 2.6293164939884505e-05 -9.846605687704276e-06 5.100276053143181e-05 -9.156188496655556e-06 -3.0327824957057347e-05 -3.898417737264394e-05 -6.280974934567442e-05 -1.3854163254485292e-05 3.6465621069862535e-05 -4.0040252952855266e-05 3.98517469569476e-06 5.2046343777120834e-05 4.0585544019955446e-05 1.6667106805434617e-06 1.8714142181298863e-05 4.487797624223779e-05 5.2462477457443475e-05 5.1054846031882066e-05 6.764639667127927e-05 1.906992005686509e-05 7.404850115836213e-05 3.357091869398556e-05 7.426399421575079e-05 6.330285549421427e-05 8.481555337970487e-05 4.3604535901896404e-05 5.568615377906456e-05 6.507010899854507e-05 8.789699639372939e-05 7.821988244262896e-05 7.480764810709038e-05 8.10769004045892e-05 7.023225281925536e-05 8.401606218617733e-05 8.725781368468271e-05 8.062686549195386e-05 8.557542000953379e-05 7.481649391777152e-05 6.161348606832426e-05 6.271535398742973e-05 2.9458419065865015e-05 3.033054513854353e-05 -7.595053954833696e-05 -0.00011731786325808423 -0.00012301942816860342 -0.00012379526830542256 -0.00010463904022362634 -0.00010948321273379555 -9.771929154254254e-05 -8.342210170681555e-05 -8.936646657277465e-05 -0.00010353526187490852 0.0003189800169064127 0.0004942854247502611 -2.1115557642629427e-05 0.00018822325874353225 -2.9612852285875173e-05 -3.54567516943625e-05 4.4891330763720396e-05 6.756595150064624e-05 -4.2713103794295074e-05 1.7987154230397038e-05 -6.398599820278013e-06 1.1659000029150901e-05 8.570874247420767e-05 1.2435883459494683e-06 1.4852402258293574e-05 -2.561600235138497e-06 1.648857125598215e-05 2.690152302894713e-05 -3.334821320484281e-05 -4.703720935577976e-05 -6.222980414579233e-05 -7.503678906027542e-05 -5.594810594574008e-05 2.8883877271575968e-05 4.935537477057754e-05 -8.3410368597517e-05 0.0003040444105545864 -2.1214180709669834e-05 -4.86215195070203e-05 0.00029388845388809634 -3.8314306789692154e-05 0.0008242612179647284 0.0007031036099961391 -6.190425941208935e-05 5.711214568503699e-05 3.957691894902639e-05 9.654060630058856e-05 -6.250814797166734e-05 -3.496696613362017e-05 2.9975276336047e-05 -1.9008258999895595e-05 8.607307982730463e-05 2.9716141226243805e-05 -8.00449888093568e-05 0.00044629481330111083 0.0006887436246360123 0.000661589554990145 0.0006784946582888733 -3.032525148366486e-05 1.4567444350318344e-05 0.0006626382448233271 0.000661914672530931 0.00010333485095050373 0.0009084907477808771 -8.104339022463756e-05 -5.208423711250295e-05 -1.45046250830112e-05 0.00011929860658988815 0.0005368498867249673 0.0007250848479239002 -5.630827241007451e-05 5.164489335292419e-06 0.00021443722927948396 0.0006114620607450705 -2.851483922423598e-07 0.0008343623933763496 0.0003247840420883729 0.00029572155598127565 0.0002183337157404333 0.0007164110281938366 -1.1472059092918668e-05 -2.4524227755657627e-05 3.0033108396556493e-05 1.5284521216342467e-05 3.274302083228965e-06 -3.321456595383281e-05 6.732798297231764e-05 6.404102776105218e-05 8.391617317508206e-05 7.44305037776946e-05 6.948789333093948e-05 0.00022640807548225016 0.000665899824574958 -1.8644699155875284e-05 -2.1159113739429477e-05 0.000635530239527045 0.0008304597226780886 9.095389271959257e-05 7.943486788754517e-05 -6.697400172896934e-05 -6.786340331587813e-05 0.0010159540226893071 0.0007109942741255252 7.592283800756806e-05 0.000917199661749625 7.497837124192687e-05 9.72709773616425e-05 0.0007378428800309951 7.141131348002392e-05 5.9725713684045396e-05 9.026538493243568e-05 0.0006971323540473438 9.767592970099261e-05 0.0007022685011450848 0.0006970503715321021 5.129083101717606e-05 8.70728534630921e-05 9.578597333168433e-05 9.411605345983555e-05 8.641849983937357e-05 9.738340589947488e-05 8.055909524964407e-05 9.668674433614004e-05 8.222603735688722e-05 9.648472456946902e-05 9.832185474133601e-05 9.211455605175856e-05 9.41654773190407e-05 9.51995395383455e-05 9.72555058420942e-05 8.483122773371202e-05 7.880208871628768e-05 8.46030222739011e-05 8.235925561224313e-05 8.899849681259626e-05 8.443521559356718e-05 -4.874817766681136e-05 4.716077026927884e-05 6.249487840645437e-05 4.887270146217294e-05 5.542540757533754e-05 4.636884231813181e-05 6.590722968704554e-05 5.8094601220616034e-05 8.128437073956664e-05 6.732955718635712e-05 9.384696214886161e-05 2.92758198838673e-05 2.599467120331251e-05 0.0005034138140453142 0.0006601381358187644 0.0006207648964717753 0.0006832271235813114 4.719476825144488e-05 -5.0604219291393675e-06 -3.0284917149889167e-05 0.000681867880439046 0.0005288838675885235 2.9904615193625355e-05 2.4777283106801586e-06 0.0006441840809728071 -7.557627859047741e-05 0.001013726395984592 0.000982016602374219 6.724884323188707e-05 6.159279988784399e-05 4.215132375056709e-05 5.033708528537209e-05 9.872551804959983e-05 9.531582132196955e-05 9.167283376276308e-05 9.753489475408857e-05 9.142201873029851e-05 9.39987478755463e-05 9.592946081321994e-05 9.68124860665703e-05 9.546506532595199e-05 8.522289620305712e-05 9.417362671878861e-05 9.50915420436642e-05 9.578246465027968e-05 9.679941404787801e-05 8.558879482128223e-05 9.593568109098405e-05 6.2486