<?xml version="1.0"?>
<VTKFile type="UnstructuredGrid"  version="0.1"  >
<UnstructuredGrid>
<Piece  NumberOfPoints="1289" NumberOfCells="2413">
<Points>
<DataArray  type="Float64"  NumberOfComponents="3"  format="ascii">0 0 0  0 0.41 0  2.2 0.41 0  2.2 0 0  0.1 0.1 0  0.1 0.3 0  0.8 0.3 0  0.8 0.1 0  0.25 0.2 0  0.248976 0.210065 0  0.245948 0.219718 0  0.241038 0.228563 0  0.234448 0.23624 0  0.226448 0.242432 0  0.217365 0.246888 0  0.207571 0.249423 0  0.197468 0.249936 0  0.187467 0.248404 0  0.17798 0.24489 0  0.169395 0.239539 0  0.162062 0.232569 0  0.156283 0.224265 0  0.152293 0.214968 0  0.150257 0.205058 0  0.150257 0.194942 0  0.152293 0.185032 0  0.156283 0.175735 0  0.162062 0.167431 0  0.169395 0.160461 0  0.17798 0.15511 0  0.187467 0.151596 0  0.197468 0.150064 0  0.207571 0.150577 0  0.217365 0.153112 0  0.226448 0.157568 0  0.234448 0.16376 0  0.241038 0.171437 0  0.245948 0.180282 0  0.248976 0.189935 0  1.1 0 0  1.1 0.41 0  0.1 0.2 0  0.45 0.1 0  0.45 0.3 0  0.55 0 0  0.275 0.1 0  0.275 0.3 0  0.275 0 0  0.55 0.41 0  0 0.205 0  0.825 0 0  0.825 0.41 0  0.275 0.41 0  0.1 0.15 0  0.1875 0.1 0  0.1 0.25 0  0.1875 0.3 0  0.132322 0.2 0  0.241426 0.253518 0  0.241426 0.146482 0  0.264574 0.17974 0  0.264574 0.22026 0  0.138434 0.187348 0  0.153372 0.150948 0  0.148413 0.164094 0  0.176495 0.136535 0  0.22768 0.143571 0  0.138434 0.212652 0  0.148413 0.235906 0  0.176495 0.263465 0  0.22768 0.256429 0  0.23125 0.3 0  0.24769 0.24094 0  0.23125 0.1 0  0.24769 0.15906 0  0.26253 0.193641 0  0.190482 0.137872 0  0.166753 0.146661 0  0.157737 0.244461 0  0.190482 0.262128 0  0.203107 0.261264 0  0.253635 0.22977 0  0.203107 0.138736 0  0.253635 0.17023 0  0.261028 0.206206 0  0.167707 0.251809 0  0.143629 0.224191 0  0.215302 0.2591 0  0.270465 0.245894 0  0.215302 0.1409 0  0.270465 0.154106 0  0.284052 0.202587 0  0.14375 0.3 0  0.209375 0.3 0  0.225966 0.278501 0  0.209375 0.1 0  0.225966 0.121499 0  0.211613 0.273759 0  0.211613 0.126241 0  0.143629 0.175809 0  0.1 0.175 0  0.133484 0.164832 0  0.144491 0.249539 0  0.1 0.225 0  0.133484 0.235168 0  0.3625 0.3 0  0.25691 0.253381 0  0.25691 0.146619 0  0.277205 0.188698 0  0.184724 0.275712 0  0.237372 0.268285 0  0.184724 0.124288 0  0.237372 0.131715 0  0.197578 0.273149 0  0.193656 0.286994 0  0.197578 0.126851 0  0.193656 0.113006 0  0.122953 0.187671 0  0.118362 0.153758 0  0.155372 0.258107 0  0.122953 0.212329 0  0.118362 0.246242 0  0.276394 0.27264 0  0.276394 0.12736 0  0.280965 0.170013 0  0.253125 0.3 0  0.14375 0.1 0  0.253125 0.1 0  0.269489 0.26014 0  0.269489 0.13986 0  0.303639 0.184297 0  0.165625 0.3 0  0.134742 0.273113 0  0.257831 0.274737 0  0.255279 0.128499 0  0.3625 0.1 0  0.165625 0.1 0  0.162031 0.132368 0  0.134955 0.126405 0  0.149334 0.125568 0  0.142936 0.139597 0  0.12695 0.140259 0  0.242514 0.285501 0  0.242514 0.114499 0  0.1 0.125 0  0.117483 0.12555 0  0.11154 0.139776 0  0.121875 0.1 0  0.109143 0.1125 0  0.126805 0.114 0  0.220313 0.29129 0  0.351562 0.287369 0  0.207222 0.2866 0  0.220312 0.10871 0  0.1375 0 0  0.20625 0 0  0.207222 0.1134 0  0.11722 0.17118 0  0.1 0.1625 0  0.0778409 0.16875 0  0.0862762 0.15625 0  0 0.15375 0  0 0.1025 0  0.11722 0.22882 0  0.1 0.2375 0  0 0.3075 0  0.0862762 0.23125 0  0.0598995 0.222547 0  0.0860223 0.2125 0  0.289584 0.181469 0  0.300267 0.16446 0  0.163832 0.269071 0  0.149597 0.273325 0  0.1 0.275 0  0.268498 0.285953 0  0.31875 0.3 0  0.294154 0.254672 0  0.296875 0.3 0  0.293558 0.271845 0  0.285095 0.286799 0  0.324298 0.264316 0  0.307866 0.263745 0  0.317093 0.234901 0  0.315485 0.281219 0  0.316547 0.250625 0  0.344693 0.243731 0  0.331592 0.251147 0  0.35129 0.270663 0  0.338689 0.263683 0  0.340625 0.3 0  0.249849 0.264383 0  0.265097 0.11422 0  0.284688 0.156136 0  0.242188 0.324017 0  0.0856613 0.2625 0  0.132812 0.0612217 0  0.264062 0.0612217 0  0.198437 0.07598340000000001 0  0.0860223 0.1375 0  0.0794526 0.191089 0  0.285228 0.140397 0  0.298655 0.148737 0  0.31875 0.1 0  0.327335 0.15374 0  0.296875 0.1 0  0.312289 0.155283 0  0.313348 0.135607 0  0.321802 0.173916 0  0.298433 0.134116 0  0.112124 0.2625 0  0.127526 0.259083 0  0.121875 0.3 0  0.0682687 0.241503 0  0.1 0.2875 0  0.117762 0.28125 0  0.107813 0.3 0  0.103906 0.313849 0  0.0778409 0.28125 0  0.1375 0.41 0  0.0862762 0.29375 0  0.08886860000000001 0.24375 0  0.307812 0.338778 0  0.307812 0.292227 0  0.33216 0.279164 0  0.387888 0.266414 0  0.264063 0.31948 0  0.110937 0.07598340000000001 0  0.242188 0.07598340000000001 0  0.319914 0.11839 0  0.340625 0.1 0  0.334448 0.133793 0  0.329687 0.108539 0  0.346259 0.118491 0  0.360334 0.173636 0  0.327539 0.205033 0  0.132812 0.288712 0  0.362436 0.278836 0  0.368105 0.259418 0  0.4125 0.41 0  0.329687 0.324017 0  0.329687 0.292306 0  0.285938 0.318952 0  0.417187 0.338778 0  0.324481 0.14148 0  0.351562 0.106771 0  0.40625 0.1 0  0.341028 0.168342 0  0.319221 0.190479 0  0.335292 0.184501 0  0.305563 0.20794 0  0.220313 0.31948 0  0.132812 0.332772 0  0.0865876 0.311259 0  0.0598995 0.302453 0  0.0906541 0.343255 0  0.353543 0.255837 0  0.36574 0.237633 0  0.405007 0.254279 0  0.275795 0.352123 0  0.4125 0 0  0.35493 0.137394 0  0.366563 0.120618 0  0.35917 0.205246 0  0.198438 0.318952 0  0.0626109 0.263892 0  0.40625 0.3 0  0.354809 0.155936 0  0.386512 0.146872 0  0.373101 0.159939 0  0.384375 0.1 0  0.343394 0.19929 0  0.350682 0.185683 0  0.368101 0.189748 0  0.344016 0.221511 0  0.391108 0.213329 0  0.376279 0.204783 0  0.398843 0.182768 0  0.375804 0.222746 0  0.390665 0.196958 0  0.394004 0.23518 0  0.359883 0.222828 0  0.419908 0.204359 0  0.404243 0.204783 0  0.412615 0.224526 0  0.20625 0.41 0  0.165625 0.325257 0  0.0347982 0.244954 0  0.379558 0.247154 0  0.34165 0.147603 0  0.372264 0.136992 0  0.388988 0.121989 0  0.373437 0.108554 0  0.351562 0.31948 0  0.391367 0.16527 0  0.399572 0.223324 0  0.452011 0.227371 0  0.40877 0.239392 0  0.431491 0.237337 0  0.421224 0.250459 0  0.449619 0.262098 0  0.418865 0.276779 0  0.437063 0.252274 0  0.415673 0.263227 0  0.430988 0.266772 0  0.402767 0.273419 0  0.452967 0.244883 0  0.428125 0.3 0  0.408502 0.286186 0  0.384375 0.3 0  0.392267 0.285807 0  0.465927 0.219339 0  0.43489 0.283846 0  0.376424 0.286289 0  0.625 0.3 0  0.473533 0.205186 0  0.461713 0.255517 0  0.5375 0.3 0  0.465725 0.235405 0  0.44631 0.201425 0  0.471875 0.3 0  0.494307 0.227729 0  0.459448 0.206736 0  0.462294 0.180792 0  0.478933 0.227536 0  0.486793 0.21381 0  0.486322 0.251373 0  0.50065 0.215318 0  0.54005 0.175389 0  0.474633 0.189893 0  0.512916 0.208697 0  0.49531 0.199967 0  0.475889 0.175275 0  0.625 0.1 0  0.459311 0.153933 0  0.513645 0.242704 0  0.392892 0.248539 0  0.374815 0.271913 0  0.365974 0.14871 0  0.395312 0.109184 0  0.417061 0.123981 0  0.483196 0.277003 0  0.381967 0.179632 0  0.429898 0.219374 0  0.433473 0.206165 0  0.43149 0.181038 0  0.444208 0.215487 0  0.472985 0.247309 0  0.49375 0.3 0  0.475579 0.262714 0  0.49916 0.274293 0  0.501175 0.184809 0  0.514164 0.225681 0  0.543648 0.214977 0  0.5341630000000001 0.23481 0  0.527396 0.216171 0  0.5375 0.1 0  0.534548 0.202315 0  0.561545 0.192513 0  0.5494289999999999 0.201221 0  0.570923 0.218346 0  0.412582 0.149833 0  0.489327 0.264745 0  0.502439 0.254775 0  0.462391 0.271166 0  0.496775 0.241732 0  0.5294410000000001 0.268606 0  0.482812 0.291099 0  0.46879 0.285038 0  0.452663 0.284065 0  0.51789 0.257882 0  0.53408 0.252026 0  0.560142 0.243543 0  0.545708 0.243474 0  0.547532 0.229019 0  0.55282 0.265323 0  0.398971 0.153424 0  0.400349 0.135684 0  0.410135 0.168145 0  0.428823 0.161323 0  0.415266 0.183779 0  0.329687 0.0810483 0  0.395312 0.0612217 0  0.373437 0.318952 0  0.439062 0.324017 0  0.561816 0.229354 0  0.585029 0.239287 0  0.431827 0.139854 0  0.446796 0.168929 0  0.351562 0.07598340000000001 0  0.395313 0.318944 0  0.54337 0.150762 0  0.460937 0.31948 0  0.418412 0.137529 0  0.428125 0.1 0  0.442783 0.152332 0  0.450742 0.134294 0  0.373437 0.0805201 0  0.384383 0.342558 0  0.482812 0.318952 0  0.429239 0.127457 0  0.444274 0.117405 0  0.426548 0.113815 0  0.49375 0.1 0  0.488954 0.113984 0  0.457973 0.121842 0  0.471621 0.137346 0  0.515625 0.325257 0  0.48125 0.41 0  0.417187 0.07598340000000001 0  0.496363 0.126778 0  0.479043 0.155715 0  0.439062 0.0805201 0  0.481795 0.126919 0  0.471875 0.1 0  0.489227 0.142159 0  0.515625 0.1 0  0.520062 0.147117 0  0.501244 0.161791 0  0.505431 0.112984 0  0.505344 0.14029 0  0.526563 0.119081 0  0.5181750000000001 0.131908 0  0.539868 0.136937 0  0.460937 0.108383 0  0.474242 0.114415 0  0.460937 0.0810483 0  0.487841 0.167168 0  0.526563 0.0612217 0  0.526563 0.106406 0  0.537619 0.112743 0  0.58125 0.1 0  0.559375 0.1 0  0.482812 0.08105569999999999 0  0.471883 0.0587655 0  0.570312 0.129396 0  0.548437 0.07598340000000001 0  0.504687 0.08105569999999999 0  0.49375 0.0470127 0  0.570312 0.112663 0  0.592798 0.12103 0  0.553986 0.12103 0  0.570312 0.0805201 0  0.48125 0 0  0.114787 0.2 0  0.160769 0.284765 0  0.175816 0.288361 0  0.162602 0.116048 0  0.154687 0.07598340000000001 0  0.176562 0.0805201 0  0.0598995 0.147547 0  0.307812 0.109924 0  0.291279 0.117157 0  0.278491 0.112989 0  0.285937 0.07598340000000001 0  0.307812 0.0805201 0  0.296928 0.196743 0  0.318141 0.218507 0  0.330208 0.227509 0  0.301397 0.225668 0  0.302706 0.241401 0  0.292574 0.21424 0  0.282762 0.230935 0  0.284351 0.244775 0  0.269553 0.23261 0  0.278572 0.217242 0  0.226924 0.342606 0  0.446928 0.185396 0  0.515625 0.3 0  0.504687 0.288879 0  0.515256 0.276534 0  0.529479 0.285328 0  0.58125 0.3 0  0.541969 0.272936 0  0.559375 0.3 0  0.556796 0.282529 0  0.543473 0.287206 0  0.581429 0.267774 0  0.566728 0.271171 0  0.570869 0.255585 0  0.577404 0.283865 0  0.603125 0.3 0  0.597531 0.28035 0  0.570312 0.338778 0  0.592188 0.292492 0  0.603513 0.256094 0  0.614063 0.286265 0  0.610329 0.27064 0  0.632708 0.251285 0  0.657223 0.261594 0  0.618789 0.257807 0  0.614188 0.22987 0  0.630935 0.265614 
[...]
<PointData  Scalars="p"> 
	<DataArray  type="Float64"  Name="p"  format="ascii">
0.0007011067420357587 0.0006749490401204405 -1.623929736453263e-07 -7.073279226837655e-08 0.0007602884567804479 0.0007527158143412053 5.865416141249666e-05 5.719518011214976e-05 -0.000264535797397667 -0.00027852738908278496 -0.00033290455112599084 -0.00033626231565627606 -0.000330019473341293 -0.00040676858833192545 -0.00034988653756106705 -0.00012951202134835603 -0.00029207597492489866 -0.00047425667441538085 -0.00031849627281068895 1.3211072368960284e-05 0.0005179673062982415 0.0011600908050380843 0.0016810786351297556 0.0020096391159344688 0.002004328416037086 0.0016634401466525887 0.0011449369889648458 0.0005047399401361219 -9.053593661608822e-05 -0.0003281463563841625 -0.0004435834880668877 -0.0002992336254171001 -0.00012761278960492947 -0.0003454885442416159 -0.0004023429268019113 -0.00032396785846974135 -0.00033271713208941255 -0.0003319898790498907 -0.0002793541780782795 8.708883507440569e-05 8.479989655921733e-05 0.0014013201347453995 -0.00015090500302631274 -0.00015064051898775987 -7.415333544997481e-05 -7.967686282580313e-05 -8.654597935448265e-05 0.00017254624085170583 -5.739619491525834e-05 0.0009975690455371448 4.091696738023654e-05 4.166509165265e-05 0.00019556843145874942 0.001070514208459803 0.00027013263535833677 0.001070212193830927 0.0002808039833090942 0.0018199983715841046 -0.00022583785024610833 -0.00022432379354530004 -0.00028262582530307463 -0.000285082171557761 0.0017701689649338485 0.0006038428306902023 0.0009989679322177662 1.3493406053493481e-06 -0.00034782251864350755 0.00178369373546075 0.0010077150710395431 1.858507899534923e-05 -0.0003484260841456348 4.3994322511594e-05 -0.00020102635280853804 4.2706468821758664e-05 -0.00020238412117542902 -0.0002796590655571542 -0.00019423437298524973 0.00012236322611042724 0.0005038015294837223 -0.00020308497484917184 -0.00017392160491625725 -0.0003124397321434309 -0.0001759561729809149 -0.00031331820484413784 -0.0002796480572095332 9.57268924860803e-05 0.0014403266055209956 -0.00016250653888038043 -0.0002720739938432403 -0.00016105613212290213 -0.00027059702822527625 -0.00027254670143999775 0.0005938404185576613 0.00012371163296457757 -0.00017868951051404908 0.00015285368881420066 -0.0001680503491578882 -0.00011469938507022172 -0.00011473211888670237 0.0014259124547983525 0.0012799208008318454 0.0012791433509339147 0.000821697172024714 0.0013001881091295373 0.0013020194078249673 -0.00016883549623347105 -0.00024073932694933302 -0.00024280519422356677 -0.00027661011609381246 8.703417018238649e-05 -0.00020790554657826015 7.939298374284939e-05 -0.00021358921392613088 -4.0015957326420965e-05 0.00014018548561454605 -2.652868699761607e-05 0.00014481092100737797 0.0016067360891632043 0.0011329562214838142 0.0005490903711935919 0.001605328695806979 0.001138758911286019 -0.00021728296918489107 -0.00022493471922792574 -0.00027418080932931717 -5.8028839319597805e-05 0.0005929549211391167 -3.846383277852336e-05 -0.00023401550484405265 -0.00023765547578318518 -0.00026556923627082805 0.00044342502628632224 0.0007761589421294506 -0.00023119842336753187 -0.00021899691100721072 -0.00016910531906844147 0.00046474762519600147 0.00040711374500358597 0.0007552553693932843 0.0006128144910759287 0.0007016824846200753 0.0009093217715821478 -0.00010313598258671514 -9.273406881158891e-05 0.0008792149372860563 0.0008453094342207609 0.000969259734592146 0.0007035589611343027 0.0007909971341017115 0.0007420187396743951 -2.8304329136017757e-06 -0.00020371277842159242 2.62520963516043e-05 -4.753714448126148e-07 0.0006153677860047885 0.0004054275658717552 4.6412446162031605e-05 0.0013439521112720283 0.0011726623301912677 0.001134061408545219 0.0010796942985321228 0.0009312972294414838 0.0007894317306562535 0.0013463889577415887 0.0011939874952576791 0.0007581223696958982 0.0011543640507190548 0.001089449049179881 0.0012500258762851322 -0.00027126368371482 -0.00026672733927431635 0.00035462109469664734 0.0005890615114526108 0.0008786984368399135 -0.00017239061186693502 -0.00014524438737808119 -0.00027338308432256237 -0.00013979480651245117 -0.000252732385752278 -0.00018979812759272661 -0.0002547596572700447 -0.00025031753758380723 -0.00026134147246068755 -0.00022084534764648306 -0.0002557187935162165 -0.00025045007332960274 -0.0002547694783121939 -0.0002373524220650612 -0.00024468653983335156 -0.00017807720635361053 -0.00022863599352728446 -0.00018962978235758868 -0.00026696863418706524 0.00014313873812545422 0.0009714835643669539 0.0006104639941591612 0.00013638453852025877 0.0003452419952502251 0.0009519170875651147 0.001212092039474083 -0.0002610765353235069 -0.0002633676374088864 -0.00014209819949708284 -0.00025678996047983976 -0.00014582538600775946 -0.000262295224617208 -0.0002545284196831078 -0.00025878089542518296 -0.0002569814381245586 0.0009571458024438706 0.0009148698359351752 0.0007002881881444929 0.001040214568894816 0.0008189226108648523 0.0008009187734746888 0.0007317350429356915 0.0006979699593026284 0.0008482325761298894 0.0005873666995274059 0.0007949462588022304 0.0010982561892506355 1.975912514285539e-05 -0.00018446152985600152 -0.00023161634505992188 -0.00022502871459010096 4.718610002771435e-05 0.0006843555014358669 0.00015048273545979814 -0.0002303497699089793 -0.00017481376565625645 -0.0002447732720594941 -0.00019581157524601797 -0.00022423758841699171 -0.00024349917329646037 -0.0002561086997522902 0.0006825788360980499 -0.00022659731453717998 -0.00023669263012877673 -5.3806195443434636e-05 -6.25178986421559e-05 -0.000201834899467633 -1.7445921923356487e-05 -9.793612573491675e-05 -0.00025329904564579727 -0.00018902722381629783 -0.00016720493364605273 -0.0002519255343784244 -0.00025944346682186875 -0.0002532986631040271 -0.00026482069481573644 0.00018502191113055455 0.000604595443526867 0.0007339017584481833 0.0007735677889952798 0.0006613038038988974 -0.00024556550916852364 -0.00024113531650969637 -0.00021838100624957553 0.00014556511175918113 -8.049209664256071e-05 -0.00024210839991631387 -0.00021930481717080512 -0.0002427970819836598 0.0003181498147966332 0.0009256609621682636 -0.00016672886287419028 -0.0002462031264839949 -0.00023028286054095618 -0.00023796669739191978 -0.00017232434900186082 -0.00024967940370803797 -0.0002469354560985591 -0.0002389721264136314 -0.0002498879812662693 -0.00022691251505213312 -0.00023462796241261214 -0.0002228594741069886 -0.000235681645303847 -0.00022694187969864141 -0.00022647566578152243 -0.0002432034770442147 -0.0002083548290594358 -0.00021874717183874577 -0.00021445620385728952 0.0004165879781495807 0.00046994421257384267 0.0009526073196754924 -0.00023445468719230375 -0.00025045645704107987 -0.00023274850593154274 -0.0002121470693520787 -0.0001975300076776845 -0.00010417306940588521 -0.00022827942268120318 -0.00022259049223659734 -0.00018507134287305233 -0.00021770771377279245 -0.00020196683492138375 -0.00020872218493640581 -0.00018484135826895383 -0.00019727681080264174 -0.00019660726297728986 -0.00020876656669168177 -0.00019668708186341448 -0.00021097396373832882 -0.00018460138962172809 -0.0001608470234507286 -0.00019323767390123594 -0.00017768249284587256 -0.0001998716578095923 -0.0001721543612511693 -0.00018095675224312583 -0.0002080800904893987 -1.7047122700650795e-05 -0.00016439677397416704 -0.00017528500951424718 -8.628727585012076e-05 -0.00017337989209403087 -0.00018835173038181437 -0.00013668485276480057 -0.00014533010963569263 -0.00017702902592964316 -0.00017543489544347954 -0.0001607867235834867 -0.00015186295080414275 -0.0001535101837758234 -0.00013779791943911588 -9.555980229378737e-05 -0.000163453797809799 -0.00012441208105214076 -0.00014277291269699984 -0.00016330686559656122 -1.9365272069376538e-05 -0.00017877518271712544 -0.00012571182295558535 -0.00022652003541304537 -0.00022331155904709715 -0.00023979284928865195 -0.00018867555044787466 -0.00019950729542021094 -0.00014724216358088854 -0.0002326649374545772 -0.00020206067322092502 -0.00019848874391902735 -0.00020092715348700901 -0.00019064530051961823 -0.00016668828247690248 -0.00011899479744159627 -0.0001610984249815611 -0.00013477721693011218 -0.00013724511651779168 -0.0001243731158124428 -9.08460191634469e-05 -0.00010299927766457867 -0.00010910419533942093 -8.690490045153021e-05 -0.00010049555256662857 -7.036238943712618e-05 -8.385128508858652e-05 -6.0551734759383304e-05 -0.00021433294254644353 -0.00014748037320993089 -0.00013662151388064023 -0.0001699636054735784 -0.0001435004250942572 -0.0001061825669263359 -0.00013702100838612914 -0.00015407762349728507 -0.00016718745415476556 -0.00012024415555554564 -0.00010302533069908786 -7.427516790390897e-05 -9.05917643486234e-05 -8.757408643978559e-05 -8.160756907449881e-05 -0.000223190662700452 -0.00021852020412462802 -0.0002170356506414005 -0.00020405312929943487 -0.00021232338024302497 -9.551048952666726e-05 -9.181107318239258e-05 -0.00012534843125096705 -0.00011740848969927077 -7.156893156691552e-05 -4.649167702680276e-05 -0.00019846078598217287 -0.00018960866826088924 -9.263726890864495e-05 -0.0001234777870190622 -9.247852019207948e-05 -0.00011852492688488798 -0.00020566361339194488 -0.00016222380424571302 -0.00019246717443722208 -0.0001814479190410901 -0.00012757618081822317 -7.052478129216267e-05 -0.00011479558405212265 -0.0001925623041746605 -0.00017216902947590288 -0.00018574623651693967 -0.0001226704550273159 -0.0001370420108661669 -0.00016857447710315473 -0.00016387897745303998 -8.382737952541866e-05 -8.450551757956177e-05 -0.00012061900583921956 -0.00013573927608284163 -0.0001604079041122936 -0.00013176875386777147 -0.0001508665283706553 -0.00013638814377872575 -0.0001485689154395019 -0.000104097660012339 -0.0001175467496693648 -0.00013836468416196176 -0.00012016154747686186 -0.00013193985144799674 -0.0001048663853118473 -0.00011721396833609335 -9.479947804804887e-05 -0.00015462617504101762 -0.00014746083017005773 -0.00012726700444796234 -0.00015163128682568332 -7.973750088414243e-05 -9.913983868646492e-05 -9.103411158941911e-05 -5.068003373299011e-05 -6.977214349051143e-05 -0.00011113368999370746 -0.00010714954072310042 -6.280968942686662e-05 -6.76346669101557e-05 -0.00010266723193778091 -9.128413139598719e-05 -6.051872151870786e-05 -4.2457635121711764e-05 -7.876908661902919e-05 -6.068953413904428e-05 -0.00010241961504826341 0.0015707516956121512 0.00046707619361511735 0.0002889913495355261 0.00042979848779716367 0.0005438298549223331 0.0004340506660664438 0.0009761759050915733 -0.00019018225255779562 -0.00021498898214756848 -0.00015594221101988573 9.26865131338406e-06 -5.103538541913932e-05 -0.00026811544924556694 -0.00025979671004157053 -0.0002554079482384905 -0.00026624894042896676 -0.0002632890545306173 -0.0002697698451985759 -0.00027408846393400154 -0.0002689670473171513 -0.00027085724463462744 -0.0002779159477958407 0.0002729876095286638 -0.00018834019650946306 -0.0001045507196538468 -0.00012159169083728913 -0.00011683352307668788 -0.00010002670430464155 -5.0603935874273785e-05 -9.137386693962283e-05 -6.722036108105412e-05 -7.475529544016381e-05 -8.53871551858687e-05 -5.160616381021115e-05 -6.620003588605436e-05 -6.292002890006843e-05 -5.565126261463716e-05 -3.464285150556676e-05 -3.591973910075521e-05 -5.4894510855537214e-05 -4.2646162899863464e-05 -2.866915721745312e-05 -2.311544114808089e-05 -2.4036870385266544e-05 -2.7801878581992364e-07 1.7463869854303643e-05 -1.3989925502007627e-05 -1.5447135576994977e-05 -4.415837366646234e-06 -1.0541510773686761e-05 1.043077050228162e-05 1.0262151126532229e-05 3.117234010278484e-05 -8.255076692519998e-06 5.374906835732216e-06 -4.043843842766083e-06 1.609565348108589e-05 -7.253504080636665e-05 -3.9754282380440726e-05 -3.7889104328462376e-05 -4.493946095397923e-05 7.85386761599039e-06 4.300275527925503e-05 -9.879308692420533e-06 -3.108172147963262e-05 3.015905369203459e-05 2.1400495148639546e-05 3.3901851135438455e-05 2.207612361569933e-05 3.788702765329637e-05 3.732088873670535e-05 2.6171257796899913e-05 5.4517443375673185e-05 1.3458166021955017e-05 2.1794377620969777e-05 4.7879486596244906e-05 2.849638837668077e-05 8.929742990004835e-05 2.9281341485931735e-05 5.338385673600628e-05 4.5012711180926834e-05 6.936351274351343e-05 5.0865812704472663e-05 6.0561142006585586e-05 4.318668215501963e-05 4.6758407390905185e-05 4.130134669677487e-05 6.246716231883719e-05 5.896981045448349e-05 5.3129649448005424e-05 4.957717975092193e-05 5.3756607268668055e-05 7.07762041661743e-05 8.309958907383245e-05 6.333348628555716e-05 7.143885360239674e-05 6.383062640237599e-05 7.347185139866227e-05 7.317805367287738e-05 8.005650813253374e-05 5.514891426144616e-05 5.870143935817777e-05 6.515457362242427e-05 6.670530098326833e-05 7.373298704447548e-05 6.660327127564554e-05 6.682573086813757e-05 5.249340164641102e-05 3.524171318574102e-05 3.086681987971167e-05 -1.4987907575726966e-05 -2.8027842549272634e-06 2.4660962173144816e-05 6.442038252755974e-05 7.745773783828499e-05 7.731102256621609e-05 8.839037940362344e-05 4.322583170734661e-05 -4.700156457779975e-06 1.8918712949692224e-05 1.6401995788559288e-05 7.429260132267563e-05 8.005638971212705e-05 8.442699061167352e-05 8.254514352253827e-05 4.0543068922752266e-05 -1.54430769922619e-05 2.3911647223306757e-05 7.544692015277544e-05 8.562511572782726e-05 7.692033641329657e-05 8.374495358232967e-05 8.930854224393859e-05 9.309168069232796e-05 9.10027593026264e-05 9.339980552174843e-05 8.848489013599244e-05 8.584378217129334e-05 7.06986419824541e-05 6.558154339839683e-05 6.42943355778412e-05 5.570504073620979e-05 2.720482743869209e-05 8.250184438380742e-05 8.233773574816328e-05 4.4517800930917143e-05 7.2258508650157e-05 4.8187824943449405e-05 3.838690508003397e-05 5.581305276540408e-05 2.3653560208639472e-05 3.422997656282617e-05 3.552486084854598e-05 6.649242155597212e-05 5.95845880366735e-05 4.860237900510852e-05 5.330204747496317e-05 5.418367751183246e-05 4.489940706670056e-05 6.102753962953044e-06 4.491801613015665e-05 2.3046447789473405e-05 4.421036251424705e-05 3.6053342125286206e-05 2.5383670849480347e-05 2.396960270111504e-05 3.300485024720846e-05 -1.9756467694358907e-06 8.816992081713965e-06 1.2433180751171872e-05 3.6142924544571575e-06 4.029448813178136e-06 -2.3134672738287118e-05 -8.21345429153928e-06 -1.5557279668189598e-05 -1.5289589317920532e-05 -4.484203159410421e-05 -2.158152459295088e-05 -3.095673452992511e-05 -4.7649391325643436e-05 -3.092287318313899e-05 -1.4219606373987225e-05 -5.434507977843747e-06 -4.607698078945623e-05 -1.6492554563599615e-05 4.788108251017253e-06 -3.340162953575709e-05 -3.5153533781114084e-05 -2.8890424571194933e-05 -6.233714209800381e-05 3.4411779625839882e-06 1.4832279757585754e-05 3.409446013909203e-05 1.7813980674008373e-05 3.627525757549057e-05 -6.303288277111609e-06 -4.3422010621403326e-05 -4.431996157178224e-05 -2.6711275618595688e-05 -6.187157753967104e-05 -7.784831119012036e-05 -7.870711514015729e-05 -7.762739178901915e-05 1.681291634619975e-05 1.1472721843950318e-05 2.628281152799576e-05 -9.964195684479217e-06 5.110453309477822e-05 -9.30166786298706e-06 -3.0476100374074786e-05 -3.9112769314750014e-05 -6.296161900970487e-05 -1.4002510307375305e-05 3.651549329383427e-05 -4.0175588714348444e-05 3.885424548567471e-06 5.2175503357850783e-05 4.065115639281394e-05 1.5707857615672169e-06 1.8741424116810907e-05 4.497823904413491e-05 5.2604059048175203e-05 5.1205158224795904e-05 6.783979274962815e-05 1.9045271659842e-05 7.428735139979619e-05 3.3647996541605006e-05 7.44880654975749e-05 6.350720683184756e-05 8.507632021992834e-05 4.3750296307008057e-05 5.584836274476975e-05 6.527052579967481e-05 8.807072142195046e-05 7.839123540988378e-05 7.50116165339204e-05 8.129455613089413e-05 7.039152009810038e-05 8.417048268659255e-05 8.734232866372016e-05 8.072662193213727e-05 8.559226474708907e-05 7.494369960840451e-05 6.176708319795351e-05 6.283360145953516e-05 2.9420710800901444e-05 3.036074010809706e-05 -7.592465761183876e-05 -0.00011738337227514643 -0.00012313770816356487 -0.0001239495362544774 -0.00010483066346972584 -0.00010960158660169903 -9.780762522369491e-05 -8.353708423776372e-05 -8.936439625137199e-05 -0.00010353361969173665 0.00031900817071452104 0.0004943083721732711 -2.108827521191819e-05 0.00018818344058479466 -2.941170293998585e-05 -3.5349643219603316e-05 4.493361964343594e-05 6.751329026552546e-05 -4.260426541295963e-05 1.7947481245649934e-05 -6.435552493828546e-06 1.1703026738866983e-05 8.54335402719073e-05 1.2976029240555127e-06 1.4860402987218922e-05 -2.4301450191916787e-06 1.6411712255039964e-05 2.6850690566874922e-05 -3.3397585953197156e-05 -4.701566100758194e-05 -6.223015398969124e-05 -7.49859602804167e-05 -5.6060136362784056e-05 2.891364047216767e-05 4.9587799689815986e-05 -8.342732148047986e-05 0.0003040069681359741 -2.110839159037343e-05 -4.848192315186586e-05 0.00029385106286481104 -3.8199378776750624e-05 0.0008242731934184718 0.0007030828003677943 -6.184717959027571e-05 5.6856647456996144e-05 3.940265791375997e-05 9.665976245877289e-05 -6.248132324356887e-05 -3.493310832828917e-05 3.0006235039594077e-05 -1.8980668478646154e-05 8.61036632408379e-05 2.9640479257033172e-05 -8.005443161748216e-05 0.00044626300552511684 0.0006887581814738566 0.0006615675155685422 0.0006784730633248593 -3.030228369835581e-05 1.4567880073376318e-05 0.0006626540959603412 0.0006618927603779152 0.0001032952110326498 0.000908477612020427 -8.110183667506257e-05 -5.2107884153888464e-05 -1.4400909240061544e-05 0.00011932894117879395 0.0005368222850950753 0.0007250647553164413 -5.628756770376264e-05 5.195786757448504e-06 0.00021446687746151565 0.0006114379223374312 -2.1493360304580108e-07 0.000834345873514604 0.0003248122169472249 0.0002957507805329919 0.00021836389918976912 0.0007164249473356473 -1.1599527641521087e-05 -2.4661467434254697e-05 3.013547201385146e-05 1.5266945857670157e-05 3.22404988048912e-06 -3.3324934831160325e-05 6.75681803173635e-05 6.431007442537976e-05 8.413271033244738e-05 7.454163607197157e-05 6.937596372350342e-05 0.00022636932682122907 0.0006658779629870085 -1.8675007913235297e-05 -2.1057781953139685e-05 0.0006355069487333318 0.0008304699966715799 9.097558846384227e-05 7.955846724964831e-05 -6.698184875749292e-05 -6.782581597363672e-05 0.0010159543511229466 0.0007110083048675644 7.614072558728581e-05 0.0009172062320216178 7.509406749839839e-05 9.733502466858872e-05 0.0007378560142171556 7.165648459524061e-05 5.997548788662102e-05 9.038260713014469e-05 0.0006971466620734787 9.78229461346826e-05 0.000702282777212667 0.0006970646860061477 5.155777065710505e-05 8.691490570668809e-05 9.571993762054106e-05 9.4338393968066e-05 8.637989011029352e-05 9.725482359594738e-05 8.052656153985964e-05 9.65662710386006e-05 8.20394629505813e-05 9.642759907310726e-05 9.834780309223716e-05 9.195545965828203e-05 9.384897245239082e-05 9.498438435673623e-05 9.724739782890625e-05 8.454095770493868e-05 7.875253835189561e-05 8.440149751355717e-05 8.217831510706543e-05 8.86924737964477e-05 8.415268573042216e-05 -4.865899966362219e-05 4.692422164385517e-05 6.220945394574779e-05 4.862360400202845e-05 5.514474975748566e-05 4.613506340754477e-05 6.563408094383879e-05 5.781458914964959e-05 8.114332456798245e-05 6.711890236373097e-05 9.404701987093475e-05 2.9158370959344637e-05 2.5915852583506902e-05 0.0005033837327036917 0.000660153727565075 0.0006207826416578373 0.0006832417784408056 4.7157038728563585e-05 -5.094743397099388e-06 -3.0172198122161457e-05 0.0006818464846047865 0.0005289059890936852 3.00245509578256e-05 2.3986499026331747e-06 0.0006441614463800711 -7.556904124044992e-05 0.0010137207971705664 0.0009820172532196939 6.746174503208022e-05 6.187752722025334e-05 4.23554851742265e-05 5.0584566098609174e-05 9.874517864986392e-05 9.506950790419625e-05 9.152057364458601e-05 9.762326297082756e-05 9.172486770341485e-05 9.420385714344653e-05 9.618658392728737e-05 9.696650447240515e-05 9.553691114034888e-05 8.522391493106615e-05 9.447601199585996e-05 9.544917490789622e-05 9.60554295957204e-05 9.653696989250553e-05 8.6026212088