<?xml version="1.0"?>
<VTKFile type="UnstructuredGrid"  version="0.1"  >
<UnstructuredGrid>
<Piece  NumberOfPoints="1289" NumberOfCells="2413">
<Points>
<DataArray  type="Float64"  NumberOfComponents="3"  format="ascii">0 0 0  0 0.41 0  2.2 0.41 0  2.2 0 0  0.1 0.1 0  0.1 0.3 0  0.8 0.3 0  0.8 0.1 0  0.25 0.2 0  0.248976 0.210065 0  0.245948 0.219718 0  0.241038 0.228563 0  0.234448 0.23624 0  0.226448 0.242432 0  0.217365 0.246888 0  0.207571 0.249423 0  0.197468 0.249936 0  0.187467 0.248404 0  0.17798 0.24489 0  0.169395 0.239539 0  0.162062 0.232569 0  0.156283 0.224265 0  0.152293 0.214968 0  0.150257 0.205058 0  0.150257 0.194942 0  0.152293 0.185032 0  0.156283 0.175735 0  0.162062 0.167431 0  0.169395 0.160461 0  0.17798 0.15511 0  0.187467 0.151596 0  0.197468 0.150064 0  0.207571 0.150577 0  0.217365 0.153112 0  0.226448 0.157568 0  0.234448 0.16376 0  0.241038 0.171437 0  0.245948 0.180282 0  0.248976 0.189935 0  1.1 0 0  1.1 0.41 0  0.1 0.2 0  0.45 0.1 0  0.45 0.3 0  0.55 0 0  0.275 0.1 0  0.275 0.3 0  0.275 0 0  0.55 0.41 0  0 0.205 0  0.825 0 0  0.825 0.41 0  0.275 0.41 0  0.1 0.15 0  0.1875 0.1 0  0.1 0.25 0  0.1875 0.3 0  0.132322 0.2 0  0.241426 0.253518 0  0.241426 0.146482 0  0.264574 0.17974 0  0.264574 0.22026 0  0.138434 0.187348 0  0.153372 0.150948 0  0.148413 0.164094 0  0.176495 0.136535 0  0.22768 0.143571 0  0.138434 0.212652 0  0.148413 0.235906 0  0.176495 0.263465 0  0.22768 0.256429 0  0.23125 0.3 0  0.24769 0.24094 0  0.23125 0.1 0  0.24769 0.15906 0  0.26253 0.193641 0  0.190482 0.137872 0  0.166753 0.146661 0  0.157737 0.244461 0  0.190482 0.262128 0  0.203107 0.261264 0  0.253635 0.22977 0  0.203107 0.138736 0  0.253635 0.17023 0  0.261028 0.206206 0  0.167707 0.251809 0  0.143629 0.224191 0  0.215302 0.2591 0  0.270465 0.245894 0  0.215302 0.1409 0  0.270465 0.154106 0  0.284052 0.202587 0  0.14375 0.3 0  0.209375 0.3 0  0.225966 0.278501 0  0.209375 0.1 0  0.225966 0.121499 0  0.211613 0.273759 0  0.211613 0.126241 0  0.143629 0.175809 0  0.1 0.175 0  0.133484 0.164832 0  0.144491 0.249539 0  0.1 0.225 0  0.133484 0.235168 0  0.3625 0.3 0  0.25691 0.253381 0  0.25691 0.146619 0  0.277205 0.188698 0  0.184724 0.275712 0  0.237372 0.268285 0  0.184724 0.124288 0  0.237372 0.131715 0  0.197578 0.273149 0  0.193656 0.286994 0  0.197578 0.126851 0  0.193656 0.113006 0  0.122953 0.187671 0  0.118362 0.153758 0  0.155372 0.258107 0  0.122953 0.212329 0  0.118362 0.246242 0  0.276394 0.27264 0  0.276394 0.12736 0  0.280965 0.170013 0  0.253125 0.3 0  0.14375 0.1 0  0.253125 0.1 0  0.269489 0.26014 0  0.269489 0.13986 0  0.303639 0.184297 0  0.165625 0.3 0  0.134742 0.273113 0  0.257831 0.274737 0  0.255279 0.128499 0  0.3625 0.1 0  0.165625 0.1 0  0.162031 0.132368 0  0.134955 0.126405 0  0.149334 0.125568 0  0.142936 0.139597 0  0.12695 0.140259 0  0.242514 0.285501 0  0.242514 0.114499 0  0.1 0.125 0  0.117483 0.12555 0  0.11154 0.139776 0  0.121875 0.1 0  0.109143 0.1125 0  0.126805 0.114 0  0.220313 0.29129 0  0.351562 0.287369 0  0.207222 0.2866 0  0.220312 0.10871 0  0.1375 0 0  0.20625 0 0  0.207222 0.1134 0  0.11722 0.17118 0  0.1 0.1625 0  0.0778409 0.16875 0  0.0862762 0.15625 0  0 0.15375 0  0 0.1025 0  0.11722 0.22882 0  0.1 0.2375 0  0 0.3075 0  0.0862762 0.23125 0  0.0598995 0.222547 0  0.0860223 0.2125 0  0.289584 0.181469 0  0.300267 0.16446 0  0.163832 0.269071 0  0.149597 0.273325 0  0.1 0.275 0  0.268498 0.285953 0  0.31875 0.3 0  0.294154 0.254672 0  0.296875 0.3 0  0.293558 0.271845 0  0.285095 0.286799 0  0.324298 0.264316 0  0.307866 0.263745 0  0.317093 0.234901 0  0.315485 0.281219 0  0.316547 0.250625 0  0.344693 0.243731 0  0.331592 0.251147 0  0.35129 0.270663 0  0.338689 0.263683 0  0.340625 0.3 0  0.249849 0.264383 0  0.265097 0.11422 0  0.284688 0.156136 0  0.242188 0.324017 0  0.0856613 0.2625 0  0.132812 0.0612217 0  0.264062 0.0612217 0  0.198437 0.07598340000000001 0  0.0860223 0.1375 0  0.0794526 0.191089 0  0.285228 0.140397 0  0.298655 0.148737 0  0.31875 0.1 0  0.327335 0.15374 0  0.296875 0.1 0  0.312289 0.155283 0  0.313348 0.135607 0  0.321802 0.173916 0  0.298433 0.134116 0  0.112124 0.2625 0  0.127526 0.259083 0  0.121875 0.3 0  0.0682687 0.241503 0  0.1 0.2875 0  0.117762 0.28125 0  0.107813 0.3 0  0.103906 0.313849 0  0.0778409 0.28125 0  0.1375 0.41 0  0.0862762 0.29375 0  0.08886860000000001 0.24375 0  0.307812 0.338778 0  0.307812 0.292227 0  0.33216 0.279164 0  0.387888 0.266414 0  0.264063 0.31948 0  0.110937 0.07598340000000001 0  0.242188 0.07598340000000001 0  0.319914 0.11839 0  0.340625 0.1 0  0.334448 0.133793 0  0.329687 0.108539 0  0.346259 0.118491 0  0.360334 0.173636 0  0.327539 0.205033 0  0.132812 0.288712 0  0.362436 0.278836 0  0.368105 0.259418 0  0.4125 0.41 0  0.329687 0.324017 0  0.329687 0.292306 0  0.285938 0.318952 0  0.417187 0.338778 0  0.324481 0.14148 0  0.351562 0.106771 0  0.40625 0.1 0  0.341028 0.168342 0  0.319221 0.190479 0  0.335292 0.184501 0  0.305563 0.20794 0  0.220313 0.31948 0  0.132812 0.332772 0  0.0865876 0.311259 0  0.0598995 0.302453 0  0.0906541 0.343255 0  0.353543 0.255837 0  0.36574 0.237633 0  0.405007 0.254279 0  0.275795 0.352123 0  0.4125 0 0  0.35493 0.137394 0  0.366563 0.120618 0  0.35917 0.205246 0  0.198438 0.318952 0  0.0626109 0.263892 0  0.40625 0.3 0  0.354809 0.155936 0  0.386512 0.146872 0  0.373101 0.159939 0  0.384375 0.1 0  0.343394 0.19929 0  0.350682 0.185683 0  0.368101 0.189748 0  0.344016 0.221511 0  0.391108 0.213329 0  0.376279 0.204783 0  0.398843 0.182768 0  0.375804 0.222746 0  0.390665 0.196958 0  0.394004 0.23518 0  0.359883 0.222828 0  0.419908 0.204359 0  0.404243 0.204783 0  0.412615 0.224526 0  0.20625 0.41 0  0.165625 0.325257 0  0.0347982 0.244954 0  0.379558 0.247154 0  0.34165 0.147603 0  0.372264 0.136992 0  0.388988 0.121989 0  0.373437 0.108554 0  0.351562 0.31948 0  0.391367 0.16527 0  0.399572 0.223324 0  0.452011 0.227371 0  0.40877 0.239392 0  0.431491 0.237337 0  0.421224 0.250459 0  0.449619 0.262098 0  0.418865 0.276779 0  0.437063 0.252274 0  0.415673 0.263227 0  0.430988 0.266772 0  0.402767 0.273419 0  0.452967 0.244883 0  0.428125 0.3 0  0.408502 0.286186 0  0.384375 0.3 0  0.392267 0.285807 0  0.465927 0.219339 0  0.43489 0.283846 0  0.376424 0.286289 0  0.625 0.3 0  0.473533 0.205186 0  0.461713 0.255517 0  0.5375 0.3 0  0.465725 0.235405 0  0.44631 0.201425 0  0.471875 0.3 0  0.494307 0.227729 0  0.459448 0.206736 0  0.462294 0.180792 0  0.478933 0.227536 0  0.486793 0.21381 0  0.486322 0.251373 0  0.50065 0.215318 0  0.54005 0.175389 0  0.474633 0.189893 0  0.512916 0.208697 0  0.49531 0.199967 0  0.475889 0.175275 0  0.625 0.1 0  0.459311 0.153933 0  0.513645 0.242704 0  0.392892 0.248539 0  0.374815 0.271913 0  0.365974 0.14871 0  0.395312 0.109184 0  0.417061 0.123981 0  0.483196 0.277003 0  0.381967 0.179632 0  0.429898 0.219374 0  0.433473 0.206165 0  0.43149 0.181038 0  0.444208 0.215487 0  0.472985 0.247309 0  0.49375 0.3 0  0.475579 0.262714 0  0.49916 0.274293 0  0.501175 0.184809 0  0.514164 0.225681 0  0.543648 0.214977 0  0.5341630000000001 0.23481 0  0.527396 0.216171 0  0.5375 0.1 0  0.534548 0.202315 0  0.561545 0.192513 0  0.5494289999999999 0.201221 0  0.570923 0.218346 0  0.412582 0.149833 0  0.489327 0.264745 0  0.502439 0.254775 0  0.462391 0.271166 0  0.496775 0.241732 0  0.5294410000000001 0.268606 0  0.482812 0.291099 0  0.46879 0.285038 0  0.452663 0.284065 0  0.51789 0.257882 0  0.53408 0.252026 0  0.560142 0.243543 0  0.545708 0.243474 0  0.547532 0.229019 0  0.55282 0.265323 0  0.398971 0.153424 0  0.400349 0.135684 0  0.410135 0.168145 0  0.428823 0.161323 0  0.415266 0.183779 0  0.329687 0.0810483 0  0.395312 0.0612217 0  0.373437 0.318952 0  0.439062 0.324017 0  0.561816 0.229354 0  0.585029 0.239287 0  0.431827 0.139854 0  0.446796 0.168929 0  0.351562 0.07598340000000001 0  0.395313 0.318944 0  0.54337 0.150762 0  0.460937 0.31948 0  0.418412 0.137529 0  0.428125 0.1 0  0.442783 0.152332 0  0.450742 0.134294 0  0.373437 0.0805201 0  0.384383 0.342558 0  0.482812 0.318952 0  0.429239 0.127457 0  0.444274 0.117405 0  0.426548 0.113815 0  0.49375 0.1 0  0.488954 0.113984 0  0.457973 0.121842 0  0.471621 0.137346 0  0.515625 0.325257 0  0.48125 0.41 0  0.417187 0.07598340000000001 0  0.496363 0.126778 0  0.479043 0.155715 0  0.439062 0.0805201 0  0.481795 0.126919 0  0.471875 0.1 0  0.489227 0.142159 0  0.515625 0.1 0  0.520062 0.147117 0  0.501244 0.161791 0  0.505431 0.112984 0  0.505344 0.14029 0  0.526563 0.119081 0  0.5181750000000001 0.131908 0  0.539868 0.136937 0  0.460937 0.108383 0  0.474242 0.114415 0  0.460937 0.0810483 0  0.487841 0.167168 0  0.526563 0.0612217 0  0.526563 0.106406 0  0.537619 0.112743 0  0.58125 0.1 0  0.559375 0.1 0  0.482812 0.08105569999999999 0  0.471883 0.0587655 0  0.570312 0.129396 0  0.548437 0.07598340000000001 0  0.504687 0.08105569999999999 0  0.49375 0.0470127 0  0.570312 0.112663 0  0.592798 0.12103 0  0.553986 0.12103 0  0.570312 0.0805201 0  0.48125 0 0  0.114787 0.2 0  0.160769 0.284765 0  0.175816 0.288361 0  0.162602 0.116048 0  0.154687 0.07598340000000001 0  0.176562 0.0805201 0  0.0598995 0.147547 0  0.307812 0.109924 0  0.291279 0.117157 0  0.278491 0.112989 0  0.285937 0.07598340000000001 0  0.307812 0.0805201 0  0.296928 0.196743 0  0.318141 0.218507 0  0.330208 0.227509 0  0.301397 0.225668 0  0.302706 0.241401 0  0.292574 0.21424 0  0.282762 0.230935 0  0.284351 0.244775 0  0.269553 0.23261 0  0.278572 0.217242 0  0.226924 0.342606 0  0.446928 0.185396 0  0.515625 0.3 0  0.504687 0.288879 0  0.515256 0.276534 0  0.529479 0.285328 0  0.58125 0.3 0  0.541969 0.272936 0  0.559375 0.3 0  0.556796 0.282529 0  0.543473 0.287206 0  0.581429 0.267774 0  0.566728 0.271171 0  0.570869 0.255585 0  0.577404 0.283865 0  0.603125 0.3 0  0.597531 0.28035 0  0.570312 0.338778 0  0.592188 0.292492 0  0.603513 0.256094 0  0.614063 0.286265 0  0.610329 0.27064 0  0.632708 0.251285 0  0.657223 0.261594 0  0.618789 0.257807 0  0.614188 0.22987 0  0.630935 0.265614 
[...]
<PointData  Scalars="p"> 
	<DataArray  type="Float64"  Name="p"  format="ascii">
0.0007011345440057623 0.0006749259920935341 -1.480017070793013e-07 -7.2152423725974e-08 0.0007603172959915508 0.0007526928125837186 5.8055770284899646e-05 5.7891879502074805e-05 -0.00026452597922655433 -0.00027853690509525375 -0.00033289722630505637 -0.0003361227113224575 -0.00032973843716000204 -0.0004057879217639818 -0.0003485016780950194 -0.0001297034593628383 -0.000292234142919329 -0.0004743945951634797 -0.0003185823026897685 1.3163169080912991e-05 0.0005179473181745365 0.0011600857052668197 0.001681080416183889 0.002009641310737546 0.0020043311248826965 0.0016634438813984465 0.0011449477665270323 0.000504766415978235 -9.047976336687867e-05 -0.00032805209950558895 -0.00044344006999131973 -0.0002990658610335959 -0.00012741647214280718 -0.00034689395588968883 -0.00040328130529021733 -0.000324197789409243 -0.00033279517770052095 -0.0003319627953870971 -0.0002793236786268333 8.722858643155354e-05 8.470440017567776e-05 0.0014013230317856517 -0.00015120272573647766 -0.00015031991589724357 -7.443517657721105e-05 -7.957450759263869e-05 -8.665124784574867e-05 0.0001725887995553605 -5.714540307588089e-05 0.0009975705562673836 4.168783311224748e-05 4.1042553605914845e-05 0.00019553291876372357 0.0010705332750564846 0.0002701775947337237 0.0010701984407684502 0.0002807641619734293 0.0018200011862114444 -0.000226078039435704 -0.00022410047700808044 -0.00028259190571674683 -0.0002850948871150173 0.0017701747853602133 0.0006038787137300904 0.0009989881630974643 1.4302243795551095e-06 -0.0003484456212818421 0.00178369337324459 0.001007700431756071 1.851037210889155e-05 -0.0003478235434549482 4.3935040212992955e-05 -0.0002012248351754712 4.276570777803095e-05 -0.00020220970442548676 -0.00027964008913460573 -0.000194114465628308 0.0001224231144937353 0.0005037710622747115 -0.00020319794078047784 -0.00017403837679635177 -0.0003124291861574729 -0.0001758309479920664 -0.0003132966018176975 -0.00027964732081089255 9.567150812037164e-05 0.0014403223485566974 -0.00016255723098015324 -0.0002721805701101156 -0.00016099856821943803 -0.00027049834357043717 -0.00027254386531255185 0.0005938060705864953 0.00012368996221467996 -0.00017847696674148854 0.00015287805320526098 -0.0001682808017677212 -0.000114721909470596 -0.0001147092179245529 0.0014259223474992167 0.0012799321546646796 0.0012791614918881051 0.0008216715489741622 0.001300182413420937 0.001302006969008417 -0.00016885210467901883 -0.00024092045675827282 -0.00024264783273185564 -0.0002765796279539086 8.697526945201302e-05 -0.00020799209525948798 7.945680519539127e-05 -0.00021354016314087534 -4.006722741467447e-05 0.00014014565399053224 -2.647379847633302e-05 0.0001448549903066231 0.0016067431760137467 0.0011329771720276344 0.0005490525688666237 0.0016053270805934802 0.0011387436384188568 -0.0002174384070437892 -0.0002247856745953184 -0.00027411759918880056 -5.804662043462199e-05 0.0005929952706282056 -3.8446494258769245e-05 -0.00023419359104797445 -0.0002375042199819136 -0.000265523922938451 0.0004433845881046134 0.0007761297819940745 -0.00023125485648356313 -0.00021894896087116535 -0.00016903429770340612 0.000464793266632184 0.0004071656252172995 0.0007552906296128244 0.0006128568071882782 0.000701717894785007 0.000909350267023139 -0.00010329745177792243 -9.25727031290711e-05 0.0008792400717108009 0.0008453385280563498 0.0009692841406792369 0.0007035928770394412 0.0007910262905685189 0.0007420525114506741 -2.774064443528547e-06 -0.00020376391524497557 2.6235905728554388e-05 -5.361635208079408e-07 0.0006154117831403957 0.00040548016359984846 4.642941751553293e-05 0.0013439664076242293 0.001172677692902325 0.0011340725818496942 0.0010797099816515418 0.0009313102813023451 0.0007894535926431292 0.0013463802079993986 0.0011939775226304998 0.0007581048214299939 0.0011543574393212358 0.001089446171690925 0.0012500244127374317 -0.0002712163293619127 -0.0002666497776550771 0.00035457315389396887 0.0005890250701481335 0.0008786791010414804 -0.00017247984328040477 -0.0001453081315983089 -0.0002734329169085547 -0.000139834088529179 -0.0002527870089824033 -0.00018987587931015962 -0.00025482531458973076 -0.0002504119428462587 -0.00026139922078565874 -0.0002209276810804916 -0.0002558059067028983 -0.0002505181183312059 -0.0002548430941946948 -0.0002374171954160087 -0.0002447662721754313 -0.000178105734321394 -0.0002287465464440395 -0.0001896510203894015 -0.00026688848504670274 0.00014310539644255606 0.0009714690790932783 0.0006105038784839133 0.00013644752997580195 0.0003452893676575378 0.0009519371001734876 0.0012120973057407087 -0.0002610128217234092 -0.0002632735171673355 -0.00014199580420359197 -0.00025668390016322397 -0.00014579670251691965 -0.0002622074448042414 -0.00025442806833610225 -0.0002587069148824482 -0.000256920167523414 0.0009571261161615513 0.0009148468944403257 0.0007002601217778666 0.0010402067337457188 0.0008189013340499824 0.0008008939226144549 0.000731710298365326 0.0006979448333216023 0.0008482155664151913 0.0005873291491712871 0.0007949265351994797 0.0010982457129827706 1.971541313704914e-05 -0.00018453262661724082 -0.00023167691596921757 -0.00022504375943070107 4.712054198443692e-05 0.0006843886920728586 0.00015051795197457395 -0.0002302786237893468 -0.00017475451496168118 -0.00024465252012464885 -0.00019572695339951663 -0.00022412483982913478 -0.00024340144535851585 -0.000256103936551083 0.0006825486444442379 -0.00022663644807284402 -0.00023675352037168994 -5.372007106088337e-05 -6.254135709458668e-05 -0.0002018760365020649 -1.747780536590388e-05 -9.781176323807993e-05 -0.00025319364298782203 -0.00018894441656824675 -0.00016726370705983667 -0.00025182812514873014 -0.00025940626402943655 -0.00025323972469937353 -0.00026482841608552725 0.00018498033898404532 0.0006045628210368721 0.0007338798033994819 0.0007735498852664161 0.0006612784491566029 -0.0002456338686277689 -0.00024119083849833447 -0.0002183592327639183 0.0001455293416127142 -8.055578754106953e-05 -0.00024198302299857714 -0.00021920426936357723 -0.00024278513549544828 0.00031810866926736483 0.0009256487525127084 -0.00016662152946728633 -0.00024607726247399434 -0.0002301726949677915 -0.00023784516100552124 -0.00017230813621028527 -0.00024965514035975674 -0.0002468714819698159 -0.00023891479030966822 -0.00024991987262443823 -0.00022690911876959075 -0.00023461136901045413 -0.00022280350201333405 -0.00023570871425258075 -0.0002269071075340156 -0.0002264963737183243 -0.00024323515511008004 -0.00020832886927151659 -0.00021872694007079598 -0.00021443542964124125 0.00041654164221223395 0.0004699047491127466 0.0009526001379548418 -0.00023450433359181657 -0.0002503360847350901 -0.0002326218344454592 -0.00021208320027967523 -0.00019747113938987164 -0.00010418382942281196 -0.00022818629110044015 -0.00022259299755724357 -0.0001848913544244236 -0.00021768951738279673 -0.00020185654857072196 -0.000208631433215884 -0.0001845200689502827 -0.00019713663974161238 -0.00019641405306667766 -0.00020867637776483897 -0.00019649615475836107 -0.00021092132470544491 -0.00018432180108089204 -0.0001606372371309089 -0.0001931330024076869 -0.0001776439564111112 -0.00019983488918947135 -0.00017197174441439442 -0.000180702369815859 -0.00020808329765291492 -1.726282911246375e-05 -0.00016435448154266874 -0.00017488500001534 -8.574806609379738e-05 -0.00017306246634300263 -0.00018835059318534863 -0.00013625050152853973 -0.00014490892726027018 -0.00017697550770499497 -0.00017562639278338515 -0.00016044955702367014 -0.00015167473712341458 -0.00015291703313529613 -0.00013754897125098437 -9.621139121495573e-05 -0.00016360222333001425 -0.0001242696999211872 -0.00014281483548041955 -0.00016364555182092974 -1.9205927972644758e-05 -0.000179122202607593 -0.00012499901739694515 -0.00022654106111923714 -0.00022334977187554852 -0.00023966042999851988 -0.00018866744555396127 -0.00019957425911611233 -0.00014664484799357965 -0.0002325847397773126 -0.00020200514479831247 -0.0001984602887842192 -0.00020096150649596696 -0.00019055982640245502 -0.00016623163933866694 -0.000118472305385743 -0.00016055850638293904 -0.00013407807421587665 -0.00013759422947096854 -0.0001238790882584606 -9.051958716835587e-05 -0.0001023033193031129 -0.00010876604809932851 -8.743929958483078e-05 -0.00010049914590785623 -7.061295468667152e-05 -8.388016393951279e-05 -6.0199157355297253e-05 -0.00021431688771907662 -0.00014683012255694344 -0.00013590488788631528 -0.00016951495625452368 -0.000142898192258097 -0.00010538177015220027 -0.00013648304183582827 -0.00015360005482112756 -0.0001668171938053652 -0.00011943366705478625 -0.00010220183331390222 -7.355251770034368e-05 -8.982247524167667e-05 -8.697055150424085e-05 -8.085270691381284e-05 -0.0002231145214888557 -0.00021847113115788634 -0.0002169971526891139 -0.00020411483673137668 -0.00021230026372298465 -9.54788442755972e-05 -9.18523888461302e-05 -0.0001253198621590083 -0.00011720253675364776 -7.099125227766188e-05 -4.600152443642398e-05 -0.00019859705383859093 -0.0001897689255656556 -9.25923759339767e-05 -0.0001234027719291897 -9.33596760394471e-05 -0.00011822760523259906 -0.00020570811183833937 -0.00016238673629187416 -0.0001926627925784168 -0.00018176821573699238 -0.00012757964184696144 -7.047707630102398e-05 -0.00011442202859645009 -0.00019271391518345038 -0.0001724506166154048 -0.00018589760295487364 -0.00012319933197173067 -0.0001376415345295098 -0.0001689752181228564 -0.00016440320464080016 -8.34455145377142e-05 -8.431814394872241e-05 -0.00012072052288613506 -0.00013645591904347623 -0.00016093410525158726 -0.0001319573985044531 -0.00015148766192179863 -0.00013680843507154212 -0.0001492514201037746 -0.00010466921424906224 -0.00011841687705076536 -0.00013904417999871998 -0.00012083754310332987 -0.0001327515353998114 -0.00010562217769074723 -0.00011805300520850874 -9.566696981157359e-05 -0.00015502302757050578 -0.00014797722867822163 -0.00012754794728033343 -0.00015214301662004744 -8.006017338222362e-05 -9.977350641317719e-05 -9.170190933673816e-05 -5.0959700671937745e-05 -7.02492802380758e-05 -0.00011148273959222717 -0.00010739219925769215 -6.339482533791029e-05 -6.798299459325712e-05 -0.0001030764357643584 -9.150620331863286e-05 -6.096716634061956e-05 -4.2699865641646165e-05 -7.943413887826815e-05 -6.1028373217471175e-05 -0.00010261205529139994 0.0015707542991812125 0.0004670358376170875 0.0002889455890957165 0.00042984580441710263 0.000543873602548799 0.0004340976781023307 0.0009761910698942231 -0.00019006797213356035 -0.00021495192084269768 -0.0001557788289829213 9.305585335894812e-06 -5.0958702260263066e-05 -0.00026809889009375633 -0.00025982620920008754 -0.0002554548960417521 -0.0002662974767183038 -0.00026336915294566254 -0.0002697940737904631 -0.0002741498424907064 -0.00026904240437904516 -0.0002709231795945182 -0.00027794169334461883 0.000272942045720123 -0.00018842589729212343 -0.00010398657992276824 -0.00012095435422032066 -0.0001160906465952557 -9.934336752906549e-05 -5.034731386347249e-05 -9.062683634184624e-05 -6.67898022490697e-05 -7.417536770144544e-05 -8.47668170796507e-05 -5.1163915925920176e-05 -6.562995548231734e-05 -6.229064616907014e-05 -5.525981301765539e-05 -3.459633227738733e-05 -3.579506091392091e-05 -5.4621256027475795e-05 -4.2466582781277544e-05 -2.8496524856792305e-05 -2.3228676439110748e-05 -2.405873482504368e-05 -6.022948536890058e-07 1.6634719662699852e-05 -1.4101763901716215e-05 -1.5344706881467224e-05 -4.7940094357408665e-06 -1.05899994709208e-05 9.755869839450359e-06 1.0025169142614238e-05 3.022329178405433e-05 -8.647889268825242e-06 4.73251270110467e-06 -4.494224911974446e-06 1.5238271695005148e-05 -7.216830128609067e-05 -3.95906678250818e-05 -3.7648713164079186e-05 -4.450512691766811e-05 7.1717640077548996e-06 4.173634560335693e-05 -1.0143751022895208e-05 -3.105437360724112e-05 2.9055498688871646e-05 2.057104826571819e-05 3.314442905961332e-05 2.1133237142251923e-05 3.670442830762986e-05 3.6228965420450274e-05 2.532901868448072e-05 5.3610999149653066e-05 1.2863418007459657e-05 2.1271718165842428e-05 4.672065390346767e-05 2.8440525034981293e-05 8.934788367748279e-05 2.8882152279579e-05 5.203767351702183e-05 4.473443099645363e-05 6.804987772754096e-05 4.950703945235525e-05 5.919310345496307e-05 4.2036642302696736e-05 4.5848352597395765e-05 4.034474568216731e-05 6.12620836335394e-05 5.7782723897419984e-05 5.1880978469532806e-05 4.846585225032523e-05 5.272836223322106e-05 6.987856068640483e-05 8.256814342294958e-05 6.200721908756481e-05 7.032174322782857e-05 6.279230181500828e-05 7.299854038577228e-05 7.244786581333007e-05 7.915104877363413e-05 5.437246262114006e-05 5.7809467007213135e-05 6.444287447369406e-05 6.619883151671032e-05 7.358173529566936e-05 6.624293814111246e-05 6.670371498300028e-05 5.1819476886810375e-05 3.4060338677082556e-05 2.985765771134842e-05 -1.517169342678418e-05 -3.112334756495228e-06 2.3887953012919794e-05 6.393326710181739e-05 7.675425516182452e-05 7.623814753043895e-05 8.790968881555183e-05 4.241736038034157e-05 -5.037630905274965e-06 1.87208093799262e-05 1.5778620982482236e-05 7.318419004511456e-05 7.940459480685557e-05 8.375582798820721e-05 8.167951103790591e-05 3.969225021859517e-05 -1.550725463175799e-05 2.3139356964670218e-05 7.617003905053975e-05 8.530886262345713e-05 7.687596457669319e-05 8.365043835378067e-05 8.906492979495704e-05 9.305908491693803e-05 9.077210712973681e-05 9.352735711927714e-05 8.817490598305468e-05 8.525343643133559e-05 7.057352717806767e-05 6.673889455398663e-05 6.450832360818082e-05 5.559340588266814e-05 2.8077346676312737e-05 8.30319128887867e-05 8.241816736839731e-05 4.508037944338526e-05 7.267252090274907e-05 4.832778855524711e-05 3.8490461108632396e-05 5.6441862891318976e-05 2.411767278945191e-05 3.468322450740216e-05 3.655513767384623e-05 6.722183773255051e-05 6.0578896871196743e-05 4.967614981391264e-05 5.4638267024062056e-05 5.539049327133831e-05 4.61623779898348e-05 6.686959463116385e-06 4.621970210865081e-05 2.4051961151840294e-05 4.513115097694909e-05 3.723526751874345e-05 2.6375430853339775e-05 2.4745220692238008e-05 3.376618943489404e-05 -1.7685705635497025e-06 9.40247142119586e-06 1.2871506778515266e-05 3.630928880200842e-06 4.187228212280141e-06 -2.3337014037474552e-05 -8.266245997425264e-06 -1.5539858294071586e-05 -1.5375162628205954e-05 -4.535476709748157e-05 -2.15666233537077e-05 -3.1287818066033684e-05 -4.804877826613059e-05 -3.116588956100343e-05 -1.4183760511555032e-05 -5.078197642292943e-06 -4.649473889025016e-05 -1.6259341253207876e-05 5.455073320171793e-06 -3.35603273809443e-05 -3.5250011638332384e-05 -2.8897508503910316e-05 -6.301664613799845e-05 4.036666918083479e-06 1.5666378541523484e-05 3.5273973571306675e-05 1.856743195288177e-05 3.738820191730827e-05 -5.93429531068978e-06 -4.3632877930908525e-05 -4.454004446249476e-05 -2.6645177104068654e-05 -6.250941996615218e-05 -7.862271854527285e-05 -7.952390434072117e-05 -7.827387829100033e-05 1.7624581611427906e-05 1.2237061756911208e-05 2.724635281734878e-05 -9.745394068605285e-06 5.236245178701188e-05 -8.939635238050235e-06 -3.055737323525582e-05 -3.9349793271863676e-05 -6.343302219299268e-05 -1.395913941103688e-05 3.745281103206116e-05 -4.03387383296495e-05 4.295242594744544e-06 5.3239550423980764e-05 4.1725778015089586e-05 1.9606973537420036e-06 1.9515735270698156e-05 4.595390803146621e-05 5.3573437345027154e-05 5.204693008700713e-05 6.887534281170477e-05 1.9754289072965605e-05 7.479122209781378e-05 3.460789204919765e-05 7.527389652566871e-05 6.420811177940712e-05 8.50075707859384e-05 4.463325332869919e-05 5.672641125519661e-05 6.612069039802171e-05 8.856549889824271e-05 7.9366009855141e-05 7.597169975457044e-05 8.207999226021103e-05 7.159901950645045e-05 8.489598797332089e-05 8.773061959615666e-05 8.143626341683894e-05 8.573564368464505e-05 7.600053927630397e-05 6.296912264102716e-05 6.41567155280969e-05 2.9423209740832276e-05 3.038733857993897e-05 -7.56948433539122e-05 -0.00011766018177120826 -0.00012374674855060596 -0.00012472866138010363 -0.00010566858638488415 -0.00011014592106690295 -9.815323543355655e-05 -8.396157878553591e-05 -8.917110211636749e-05 -0.00010364676344756183 0.0003190580759297713 0.0004943594537105377 -2.1083837021509962e-05 0.00018813473498550845 -2.912927500078812e-05 -3.5102530709333884e-05 4.417072986095402e-05 6.659134273407814e-05 -4.243213000727391e-05 1.721844914683557e-05 -6.421878212520388e-06 1.1133701533569761e-05 8.606608749416653e-05 1.2832975126967847e-06 1.4829921890489579e-05 -2.450991741445833e-06 1.658788294973131e-05 2.7052910296396754e-05 -3.348257027496462e-05 -4.6921614650923807e-05 -6.218526365096171e-05 -7.470670259659555e-05 -5.6381345744487464e-05 2.9772862599517452e-05 5.0445320632776266e-05 -8.358192389505169e-05 0.000303963883588796 -2.0958751672904033e-05 -4.8069895557943684e-05 0.0002938055180922532 -3.799590499638764e-05 0.000824296029698901 0.0007030617474955311 -6.158364359290566e-05 5.703758040835793e-05 3.8586278954859e-05 9.659750551171583e-05 -6.248787511734919e-05 -3.490353141155143e-05 3.0043961834824962e-05 -1.8973753161483707e-05 8.613519210283688e-05 2.8745787887919823e-05 -8.017179912891231e-05 0.00044621790078630265 0.0006887891706246979 0.0006615417372335359 0.0006784508543118105 -3.03213093941855e-05 1.389415047782427e-05 0.0006626905095011379 0.0006618687694603864 0.00010327177593156056 0.0009084682401467551 -8.135265359550177e-05 -5.203363522353149e-05 -1.4496243734594141e-05 0.00011936395035403021 0.0005367827733435897 0.0007250455337562938 -5.632044541725096e-05 4.6706479376384e-06 0.00021451398964724146 0.0006114055790167776 -5.954819833390955e-07 0.0008343321363997279 0.00032486499985753955 0.00029580216198044946 0.00021841178600439355 0.0007164520107653678 -1.1445361095245249e-05 -2.4737663882456242e-05 3.109984287172913e-05 1.6003387905885533e-05 3.7701220726662614e-06 -3.3561376535973116e-05 6.783040203781696e-05 6.441093278952211e-05 8.351105352184633e-05 7.339221263415219e-05 7.042619898826665e-05 0.00022632997491027888 0.000665854294472614 -1.863274594889439e-05 -2.110359636900957e-05 0.0006354764536267688 0.0008304898946616186 8.990323038530264e-05 7.846398770057078e-05 -6.685366814534952e-05 -6.759472049907027e-05 0.0010159611458223613 0.0007110352333456977 7.558380192678673e-05 0.000917220931801979 7.390084139177963e-05 9.635189062988285e-05 0.0007378807953658875 7.08488434572222e-05 5.981637193677566e-05 8.934489679762144e-05 0.0006971746574999275 9.698527284769513e-05 0.0007023106176162543 0.0006970930657219176 5.2005153842455825e-05 8.593204828677286e-05 9.708382077476451e-05 9.358168778471725e-05 8.538180271056074e-05 9.780890768182477e-05 7.914779488115382e-05 9.578965442402928e-05 8.102671589720342e-05 9.549427544050407e-05 9.863404221486212e-05 9.14479718623381e-05 9.39538134350941e-05 9.477046630347558e-05 9.735323240924348e-05 8.38027177462639e-05 7.756021359240064e-05 8.334662319873818e-05 8.108307380861856e-05 8.835864793878013e-05 8.36969179597585e-05 -4.842094323285517e-05 4.6195139403830345e-05 6.248443024015106e-05 4.8286189935793023e-05 5.489075440186889e-05 4.559312728144784e-05 6.566668936244754e-05 5.793732996133393e-05 8.211412949850398e-05 6.805903598255813e-05 9.407060721168934e-05 2.8375330224638824e-05 2.5099465460443028e-05 0.0005033404866714168 0.0006601884857673206 0.0006208241935925207 0.0006832723380642818 4.715373441768187e-05 -5.0731783662894604e-06 -3.0066276800057996e-05 0.0006818245729661742 0.0005289563153919268 3.0891674845620526e-05 2.8541667742942746e-06 0.0006441336737412613 -7.539484459246685e-05 0.0010137206544212336 0.0009820246692967775 6.684372382408907e-05 6.176524837214841e-05 4.316434312238623e-05 5.0963207783071456e-05 9.886581344106906e-05 9.578707947217868e-05 9.275381158544902e-05 9.775847726286804e-05 9.188281565109995e-05 9.50673666339808e-05 9.633958116193192e-05 9.779571794654267e-05 9.65711958525032e-05 8.634258038526607e-05 9.379507255138242e-05 9.496361757162529e-05 9.55767721131155e-05 9.675908290607144e-05 8.586328621366559e-05 9.568908863772207e-05 6.249754