<?xml version="1.0"?>
<VTKFile type="UnstructuredGrid"  version="0.1"  >
<UnstructuredGrid>
<Piece  NumberOfPoints="1289" NumberOfCells="2413">
<Points>
<DataArray  type="Float64"  NumberOfComponents="3"  format="ascii">0 0 0  0 0.41 0  2.2 0.41 0  2.2 0 0  0.1 0.1 0  0.1 0.3 0  0.8 0.3 0  0.8 0.1 0  0.25 0.2 0  0.248976 0.210065 0  0.245948 0.219718 0  0.241038 0.228563 0  0.234448 0.23624 0  0.226448 0.242432 0  0.217365 0.246888 0  0.207571 0.249423 0  0.197468 0.249936 0  0.187467 0.248404 0  0.17798 0.24489 0  0.169395 0.239539 0  0.162062 0.232569 0  0.156283 0.224265 0  0.152293 0.214968 0  0.150257 0.205058 0  0.150257 0.194942 0  0.152293 0.185032 0  0.156283 0.175735 0  0.162062 0.167431 0  0.169395 0.160461 0  0.17798 0.15511 0  0.187467 0.151596 0  0.197468 0.150064 0  0.207571 0.150577 0  0.217365 0.153112 0  0.226448 0.157568 0  0.234448 0.16376 0  0.241038 0.171437 0  0.245948 0.180282 0  0.248976 0.189935 0  1.1 0 0  1.1 0.41 0  0.1 0.2 0  0.45 0.1 0  0.45 0.3 0  0.55 0 0  0.275 0.1 0  0.275 0.3 0  0.275 0 0  0.55 0.41 0  0 0.205 0  0.825 0 0  0.825 0.41 0  0.275 0.41 0  0.1 0.15 0  0.1875 0.1 0  0.1 0.25 0  0.1875 0.3 0  0.132322 0.2 0  0.241426 0.253518 0  0.241426 0.146482 0  0.264574 0.17974 0  0.264574 0.22026 0  0.138434 0.187348 0  0.153372 0.150948 0  0.148413 0.164094 0  0.176495 0.136535 0  0.22768 0.143571 0  0.138434 0.212652 0  0.148413 0.235906 0  0.176495 0.263465 0  0.22768 0.256429 0  0.23125 0.3 0  0.24769 0.24094 0  0.23125 0.1 0  0.24769 0.15906 0  0.26253 0.193641 0  0.190482 0.137872 0  0.166753 0.146661 0  0.157737 0.244461 0  0.190482 0.262128 0  0.203107 0.261264 0  0.253635 0.22977 0  0.203107 0.138736 0  0.253635 0.17023 0  0.261028 0.206206 0  0.167707 0.251809 0  0.143629 0.224191 0  0.215302 0.2591 0  0.270465 0.245894 0  0.215302 0.1409 0  0.270465 0.154106 0  0.284052 0.202587 0  0.14375 0.3 0  0.209375 0.3 0  0.225966 0.278501 0  0.209375 0.1 0  0.225966 0.121499 0  0.211613 0.273759 0  0.211613 0.126241 0  0.143629 0.175809 0  0.1 0.175 0  0.133484 0.164832 0  0.144491 0.249539 0  0.1 0.225 0  0.133484 0.235168 0  0.3625 0.3 0  0.25691 0.253381 0  0.25691 0.146619 0  0.277205 0.188698 0  0.184724 0.275712 0  0.237372 0.268285 0  0.184724 0.124288 0  0.237372 0.131715 0  0.197578 0.273149 0  0.193656 0.286994 0  0.197578 0.126851 0  0.193656 0.113006 0  0.122953 0.187671 0  0.118362 0.153758 0  0.155372 0.258107 0  0.122953 0.212329 0  0.118362 0.246242 0  0.276394 0.27264 0  0.276394 0.12736 0  0.280965 0.170013 0  0.253125 0.3 0  0.14375 0.1 0  0.253125 0.1 0  0.269489 0.26014 0  0.269489 0.13986 0  0.303639 0.184297 0  0.165625 0.3 0  0.134742 0.273113 0  0.257831 0.274737 0  0.255279 0.128499 0  0.3625 0.1 0  0.165625 0.1 0  0.162031 0.132368 0  0.134955 0.126405 0  0.149334 0.125568 0  0.142936 0.139597 0  0.12695 0.140259 0  0.242514 0.285501 0  0.242514 0.114499 0  0.1 0.125 0  0.117483 0.12555 0  0.11154 0.139776 0  0.121875 0.1 0  0.109143 0.1125 0  0.126805 0.114 0  0.220313 0.29129 0  0.351562 0.287369 0  0.207222 0.2866 0  0.220312 0.10871 0  0.1375 0 0  0.20625 0 0  0.207222 0.1134 0  0.11722 0.17118 0  0.1 0.1625 0  0.0778409 0.16875 0  0.0862762 0.15625 0  0 0.15375 0  0 0.1025 0  0.11722 0.22882 0  0.1 0.2375 0  0 0.3075 0  0.0862762 0.23125 0  0.0598995 0.222547 0  0.0860223 0.2125 0  0.289584 0.181469 0  0.300267 0.16446 0  0.163832 0.269071 0  0.149597 0.273325 0  0.1 0.275 0  0.268498 0.285953 0  0.31875 0.3 0  0.294154 0.254672 0  0.296875 0.3 0  0.293558 0.271845 0  0.285095 0.286799 0  0.324298 0.264316 0  0.307866 0.263745 0  0.317093 0.234901 0  0.315485 0.281219 0  0.316547 0.250625 0  0.344693 0.243731 0  0.331592 0.251147 0  0.35129 0.270663 0  0.338689 0.263683 0  0.340625 0.3 0  0.249849 0.264383 0  0.265097 0.11422 0  0.284688 0.156136 0  0.242188 0.324017 0  0.0856613 0.2625 0  0.132812 0.0612217 0  0.264062 0.0612217 0  0.198437 0.07598340000000001 0  0.0860223 0.1375 0  0.0794526 0.191089 0  0.285228 0.140397 0  0.298655 0.148737 0  0.31875 0.1 0  0.327335 0.15374 0  0.296875 0.1 0  0.312289 0.155283 0  0.313348 0.135607 0  0.321802 0.173916 0  0.298433 0.134116 0  0.112124 0.2625 0  0.127526 0.259083 0  0.121875 0.3 0  0.0682687 0.241503 0  0.1 0.2875 0  0.117762 0.28125 0  0.107813 0.3 0  0.103906 0.313849 0  0.0778409 0.28125 0  0.1375 0.41 0  0.0862762 0.29375 0  0.08886860000000001 0.24375 0  0.307812 0.338778 0  0.307812 0.292227 0  0.33216 0.279164 0  0.387888 0.266414 0  0.264063 0.31948 0  0.110937 0.07598340000000001 0  0.242188 0.07598340000000001 0  0.319914 0.11839 0  0.340625 0.1 0  0.334448 0.133793 0  0.329687 0.108539 0  0.346259 0.118491 0  0.360334 0.173636 0  0.327539 0.205033 0  0.132812 0.288712 0  0.362436 0.278836 0  0.368105 0.259418 0  0.4125 0.41 0  0.329687 0.324017 0  0.329687 0.292306 0  0.285938 0.318952 0  0.417187 0.338778 0  0.324481 0.14148 0  0.351562 0.106771 0  0.40625 0.1 0  0.341028 0.168342 0  0.319221 0.190479 0  0.335292 0.184501 0  0.305563 0.20794 0  0.220313 0.31948 0  0.132812 0.332772 0  0.0865876 0.311259 0  0.0598995 0.302453 0  0.0906541 0.343255 0  0.353543 0.255837 0  0.36574 0.237633 0  0.405007 0.254279 0  0.275795 0.352123 0  0.4125 0 0  0.35493 0.137394 0  0.366563 0.120618 0  0.35917 0.205246 0  0.198438 0.318952 0  0.0626109 0.263892 0  0.40625 0.3 0  0.354809 0.155936 0  0.386512 0.146872 0  0.373101 0.159939 0  0.384375 0.1 0  0.343394 0.19929 0  0.350682 0.185683 0  0.368101 0.189748 0  0.344016 0.221511 0  0.391108 0.213329 0  0.376279 0.204783 0  0.398843 0.182768 0  0.375804 0.222746 0  0.390665 0.196958 0  0.394004 0.23518 0  0.359883 0.222828 0  0.419908 0.204359 0  0.404243 0.204783 0  0.412615 0.224526 0  0.20625 0.41 0  0.165625 0.325257 0  0.0347982 0.244954 0  0.379558 0.247154 0  0.34165 0.147603 0  0.372264 0.136992 0  0.388988 0.121989 0  0.373437 0.108554 0  0.351562 0.31948 0  0.391367 0.16527 0  0.399572 0.223324 0  0.452011 0.227371 0  0.40877 0.239392 0  0.431491 0.237337 0  0.421224 0.250459 0  0.449619 0.262098 0  0.418865 0.276779 0  0.437063 0.252274 0  0.415673 0.263227 0  0.430988 0.266772 0  0.402767 0.273419 0  0.452967 0.244883 0  0.428125 0.3 0  0.408502 0.286186 0  0.384375 0.3 0  0.392267 0.285807 0  0.465927 0.219339 0  0.43489 0.283846 0  0.376424 0.286289 0  0.625 0.3 0  0.473533 0.205186 0  0.461713 0.255517 0  0.5375 0.3 0  0.465725 0.235405 0  0.44631 0.201425 0  0.471875 0.3 0  0.494307 0.227729 0  0.459448 0.206736 0  0.462294 0.180792 0  0.478933 0.227536 0  0.486793 0.21381 0  0.486322 0.251373 0  0.50065 0.215318 0  0.54005 0.175389 0  0.474633 0.189893 0  0.512916 0.208697 0  0.49531 0.199967 0  0.475889 0.175275 0  0.625 0.1 0  0.459311 0.153933 0  0.513645 0.242704 0  0.392892 0.248539 0  0.374815 0.271913 0  0.365974 0.14871 0  0.395312 0.109184 0  0.417061 0.123981 0  0.483196 0.277003 0  0.381967 0.179632 0  0.429898 0.219374 0  0.433473 0.206165 0  0.43149 0.181038 0  0.444208 0.215487 0  0.472985 0.247309 0  0.49375 0.3 0  0.475579 0.262714 0  0.49916 0.274293 0  0.501175 0.184809 0  0.514164 0.225681 0  0.543648 0.214977 0  0.5341630000000001 0.23481 0  0.527396 0.216171 0  0.5375 0.1 0  0.534548 0.202315 0  0.561545 0.192513 0  0.5494289999999999 0.201221 0  0.570923 0.218346 0  0.412582 0.149833 0  0.489327 0.264745 0  0.502439 0.254775 0  0.462391 0.271166 0  0.496775 0.241732 0  0.5294410000000001 0.268606 0  0.482812 0.291099 0  0.46879 0.285038 0  0.452663 0.284065 0  0.51789 0.257882 0  0.53408 0.252026 0  0.560142 0.243543 0  0.545708 0.243474 0  0.547532 0.229019 0  0.55282 0.265323 0  0.398971 0.153424 0  0.400349 0.135684 0  0.410135 0.168145 0  0.428823 0.161323 0  0.415266 0.183779 0  0.329687 0.0810483 0  0.395312 0.0612217 0  0.373437 0.318952 0  0.439062 0.324017 0  0.561816 0.229354 0  0.585029 0.239287 0  0.431827 0.139854 0  0.446796 0.168929 0  0.351562 0.07598340000000001 0  0.395313 0.318944 0  0.54337 0.150762 0  0.460937 0.31948 0  0.418412 0.137529 0  0.428125 0.1 0  0.442783 0.152332 0  0.450742 0.134294 0  0.373437 0.0805201 0  0.384383 0.342558 0  0.482812 0.318952 0  0.429239 0.127457 0  0.444274 0.117405 0  0.426548 0.113815 0  0.49375 0.1 0  0.488954 0.113984 0  0.457973 0.121842 0  0.471621 0.137346 0  0.515625 0.325257 0  0.48125 0.41 0  0.417187 0.07598340000000001 0  0.496363 0.126778 0  0.479043 0.155715 0  0.439062 0.0805201 0  0.481795 0.126919 0  0.471875 0.1 0  0.489227 0.142159 0  0.515625 0.1 0  0.520062 0.147117 0  0.501244 0.161791 0  0.505431 0.112984 0  0.505344 0.14029 0  0.526563 0.119081 0  0.5181750000000001 0.131908 0  0.539868 0.136937 0  0.460937 0.108383 0  0.474242 0.114415 0  0.460937 0.0810483 0  0.487841 0.167168 0  0.526563 0.0612217 0  0.526563 0.106406 0  0.537619 0.112743 0  0.58125 0.1 0  0.559375 0.1 0  0.482812 0.08105569999999999 0  0.471883 0.0587655 0  0.570312 0.129396 0  0.548437 0.07598340000000001 0  0.504687 0.08105569999999999 0  0.49375 0.0470127 0  0.570312 0.112663 0  0.592798 0.12103 0  0.553986 0.12103 0  0.570312 0.0805201 0  0.48125 0 0  0.114787 0.2 0  0.160769 0.284765 0  0.175816 0.288361 0  0.162602 0.116048 0  0.154687 0.07598340000000001 0  0.176562 0.0805201 0  0.0598995 0.147547 0  0.307812 0.109924 0  0.291279 0.117157 0  0.278491 0.112989 0  0.285937 0.07598340000000001 0  0.307812 0.0805201 0  0.296928 0.196743 0  0.318141 0.218507 0  0.330208 0.227509 0  0.301397 0.225668 0  0.302706 0.241401 0  0.292574 0.21424 0  0.282762 0.230935 0  0.284351 0.244775 0  0.269553 0.23261 0  0.278572 0.217242 0  0.226924 0.342606 0  0.446928 0.185396 0  0.515625 0.3 0  0.504687 0.288879 0  0.515256 0.276534 0  0.529479 0.285328 0  0.58125 0.3 0  0.541969 0.272936 0  0.559375 0.3 0  0.556796 0.282529 0  0.543473 0.287206 0  0.581429 0.267774 0  0.566728 0.271171 0  0.570869 0.255585 0  0.577404 0.283865 0  0.603125 0.3 0  0.597531 0.28035 0  0.570312 0.338778 0  0.592188 0.292492 0  0.603513 0.256094 0  0.614063 0.286265 0  0.610329 0.27064 0  0.632708 0.251285 0  0.657223 0.261594 0  0.618789 0.257807 0  0.614188 0.22987 0  0.630935 0.265614 
[...]
<PointData  Scalars="p"> 
	<DataArray  type="Float64"  Name="p"  format="ascii">
0.0007010941050201978 0.0006749712547657442 -1.4793935334262853e-07 -6.728159273686565e-08 0.0007602777687080022 0.0007527372635807129 5.875116234389083e-05 5.728731948909054e-05 -0.00026452044256244483 -0.0002785259213478768 -0.00033289459525976214 -0.00033617018413397787 -0.00032954854285974916 -0.0004048093174964354 -0.00034766420263462417 -0.00012974842303631 -0.00029217546665240627 -0.00047430058971219773 -0.0003184788133144214 1.3266925595818577e-05 0.0005180456630735563 0.0011601619961460375 0.0016811320073481292 0.002009659271189602 0.002004315837010274 0.0016633956489461319 0.0011448756294749904 0.0005046729309404611 -9.058766019418473e-05 -0.0003281514840790774 -0.00044352905118094676 -0.00029911779043788984 -0.000127349786958951 -0.0003479391071160042 -0.0004044417867555487 -0.00032443743592446044 -0.000332782174443092 -0.0003319693329971856 -0.00027932803967831 8.828023339142117e-05 8.36705823020958e-05 0.00140132461408104 -0.00015139865310987422 -0.00015013316817614325 -7.434391568938748e-05 -7.961025662422632e-05 -8.659732555063708e-05 0.00017250979080520346 -5.72635136661912e-05 0.0009975742768375368 4.113269951958047e-05 4.160062378534182e-05 0.00019561853055253615 0.0010705032675652321 0.00027009791052466235 0.0010702320837029844 0.00028084431915795997 0.001820002999668284 -0.0002260772406787702 -0.00022407191769114479 -0.00028258691558999616 -0.000285096232034477 0.0017701503023288788 0.0006038057690545336 0.000998921717328438 1.3471437092539494e-06 -0.00034900151856261645 0.0017837212501965747 0.0010077705627426852 1.8595301333977394e-05 -0.00034737361276484765 4.402337655646285e-05 -0.0002011992652824116 4.268253878907526e-05 -0.00020220403525099927 -0.0002796371744510898 -0.0001941954182086979 0.0001223357165684731 0.0005038568745562151 -0.000203113289088393 -0.00017394042197157515 -0.0003124324132600482 -0.0001759306184853505 -0.00031330411888815673 -0.00027964263897032563 9.576308582783243e-05 0.0014403772810932768 -0.00016237544102578846 -0.0002721662400368494 -0.00016120079324342953 -0.0002705010883592123 -0.00027253618662079475 0.0005938625451592295 0.00012379126340552961 -0.00017825179656548101 0.00015277777595177223 -0.00016853865314052442 -0.00011457140821594623 -0.00011487198458866959 0.0014258711714783602 0.0012799151281094048 0.0012791177091621352 0.0008217356164420612 0.0013002032931836599 0.0013020544776401522 -0.00016872384571273602 -0.00024086509797881106 -0.00024267267626260075 -0.00027657526546155924 8.706281551726151e-05 -0.00020789827573277272 7.936993195528084e-05 -0.0002136313141297089 -3.995630113892266e-05 0.00014024057640734145 -2.658791371501804e-05 0.0001447589938288071 0.0016067276815727762 0.0011329410719629828 0.0005491252168874972 0.0016053459047252142 0.0011387837698596257 -0.00021739207067826335 -0.00022478256455276785 -0.00027411756992183145 -5.795327654175684e-05 0.0005929424814429889 -3.852489076571695e-05 -0.0002341603756220968 -0.0002375066137716292 -0.00026552285714067226 0.00044345134220065137 0.0007761831824001114 -0.0002311835343953653 -0.00021901830760650214 -0.00016914163409495237 0.0004647300422831668 0.0004070961581800481 0.0007552405313741677 0.0006127987010913861 0.0007016579069413777 0.000909304410528996 -0.00010324244993964691 -9.260418169426961e-05 0.0008792034826435532 0.000845296176329898 0.0009692464516997616 0.0007035475447805551 0.000790985202808334 0.0007420060907170486 -2.6350389237850763e-06 -0.00020364900060386326 2.6353864264346796e-05 -6.860502476036543e-07 0.0006153641478280162 0.0004054122892199429 4.630776100089342e-05 0.0013439406851045868 0.0011726533520683125 0.001134056409344296 0.0010796868476239789 0.0009312910368748217 0.0007894190884651465 0.001346409589505022 0.0011940050095163802 0.000758144657833725 0.0011543783205592705 0.001089459216701243 0.00125003366157069 -0.0002712146502657862 -0.00026665726010427444 0.00035464825317959615 0.0005890887740181028 0.0008787197161064663 -0.00017241961136642926 -0.0001452331386049982 -0.00027339441562073156 -0.00013976340842231712 -0.00025273949295126047 -0.00018981864217929893 -0.0002547585621685159 -0.0002503569617179965 -0.0002613537109707897 -0.00022085724356980867 -0.000255748439728975 -0.0002504392378666295 -0.000254774364661423 -0.00023730704453424944 -0.0002446792952727276 -0.00017800755833642353 -0.0002286581648510862 -0.00018971542379656704 -0.00026689418770728114 0.00014318964614687835 0.0009715026411754967 0.0006104566997373322 0.00013637633046895966 0.00034521814594136815 0.0009519066390694581 0.0012120941330624475 -0.00026103151149215197 -0.00026328151235964557 -0.00014204204536158595 -0.00025670802527029006 -0.0001458427925004497 -0.0002622224189529488 -0.0002544465172731347 -0.0002587171308388534 -0.00025694034448366413 0.0009571684299090893 0.0009148968127554051 0.0007003090846631973 0.0010402298901627343 0.0008189433907628328 0.0008009410001343132 0.0007317564718887493 0.0006979908800786396 0.0008482534536810192 0.0005873815550387507 0.0007949673700973779 0.0010982731573326184 1.9799807554457402e-05 -0.00018446666523067094 -0.00023159464666805743 -0.000224849512366901 4.719490287570295e-05 0.000684346370834108 0.00015043841219972956 -0.00023031606788821412 -0.0001748241125873936 -0.0002446905871129033 -0.00019577751601286634 -0.00022419576560249967 -0.00024345079676458555 -0.0002560856529921179 0.0006826022313425578 -0.00022650081844418358 -0.00023661634331446837 -5.363811562496174e-05 -6.244830588430411e-05 -0.0002017922038674217 -1.7398056492112805e-05 -9.769746708282077e-05 -0.00025321853244393837 -0.00018903020206601157 -0.00016744905845471835 -0.00025185701469722133 -0.00025940193744629185 -0.00025324683523326156 -0.00026481096965229203 0.0001850649340040264 0.0006046139346935672 0.000733922857661733 0.0007735899911946979 0.0006613242499425246 -0.00024553106628353357 -0.00024108864781684325 -0.00021812682164471225 0.00014561259771039866 -8.063390155591556e-05 -0.0002420601780762843 -0.0002193201995819253 -0.00024276466277943856 0.00031818437150972983 0.0009256793531689084 -0.00016642975534959554 -0.0002461398158036145 -0.00023034055679800822 -0.0002379482730305784 -0.00017245719850379968 -0.0002496444648534567 -0.00024688831676944006 -0.0002389385373365893 -0.00024987167520938963 -0.00022684768599175677 -0.0002345913924212234 -0.00022290150841528227 -0.00023562960376554497 -0.00022692547557304693 -0.00022634345377557132 -0.0002431719899408924 -0.0002083094470913586 -0.00021870619918788476 -0.00021428923368392962 0.0004166113882826435 0.000469966982465698 0.0009526215400151044 -0.0002343543999473511 -0.00025037996313312253 -0.00023274988197688484 -0.00021227159772646995 -0.00019760463534050646 -0.00010408042245053786 -0.00022833401809579327 -0.0002224760465515129 -0.00018467603744422287 -0.00021748494944528383 -0.00020160827288963907 -0.00020836334520738618 -0.00018420965436731713 -0.0001968727515128066 -0.00019611216004094355 -0.0002084080737535071 -0.00019619986334925971 -0.0002106862202003685 -0.00018402437170617707 -0.00016043701972847028 -0.0001929075012433151 -0.0001774836589278674 -0.00019963549901620638 -0.00017182130122755536 -0.0001804372599663244 -0.00020792147447669645 -1.7950983711633296e-05 -0.0001643298103098262 -0.00017458634195846438 -8.603672052735035e-05 -0.00017281018997790322 -0.0001883625761027199 -0.00013613294770082834 -0.00014476335509457366 -0.00017693659467344706 -0.00017583364934995341 -0.00016025101952976293 -0.00015158835064298275 -0.0001526956881153271 -0.0001374731590850069 -9.606083756029485e-05 -0.00016372034356336787 -0.0001242532783591356 -0.00014283737984939615 -0.00016387713521334884 -1.8525431208632565e-05 -0.00017946987171368387 -0.00012496402535214045 -0.00022635418463949394 -0.00022318834558733447 -0.0002397577803633619 -0.00018885449562090054 -0.00019984792706535475 -0.0001464877838061024 -0.00023266134914432025 -0.00020186836617138064 -0.00019842850700841827 -0.00020113827159260484 -0.00019044193330991635 -0.00016595988982662032 -0.00011845884961549388 -0.00016031056160523605 -0.00013402390898712124 -0.0001376984348076777 -0.00012383051309238502 -9.060775897790446e-05 -0.00010242509666375289 -0.00010878083065926137 -8.71661125651267e-05 -0.00010049753853233668 -7.04870913874523e-05 -8.386352481495716e-05 -6.0469912223172915e-05 -0.000214579296665017 -0.00014666705709153412 -0.00013580665273240096 -0.00016924402409353826 -0.00014273249778914493 -0.00010560585160676254 -0.00013638086249204823 -0.00015340783247185872 -0.0001665755239548845 -0.00011948757349465705 -0.0001024116062905195 -7.402153098884687e-05 -9.0123557118247e-05 -8.718773944209878e-05 -8.135440545863144e-05 -0.00022331924335354089 -0.00021870427617459048 -0.00021719508621191076 -0.00020439888930890628 -0.00021242455385286926 -9.55510334906904e-05 -9.195703216735632e-05 -0.0001251928178471078 -0.00011708292491785723 -7.133569901908102e-05 -4.6692301736069195e-05 -0.00019892890145645927 -0.0001900477074057284 -9.267896993862185e-05 -0.00012326202059337904 -9.302782012304909e-05 -0.00011812010511139867 -0.00020599841425911406 -0.00016260068781366125 -0.00019300198782875837 -0.0001821082556111631 -0.00012768731693754375 -7.036722656622153e-05 -0.00011437494012125224 -0.0001930218635576934 -0.0001727316561257619 -0.0001861631747222821 -0.00012323416414581552 -0.00013774901255621277 -0.00016925723503649054 -0.00016470579108371624 -8.354005135410027e-05 -8.426942969694749e-05 -0.00012084357954093158 -0.0001365575972067389 -0.00016122614367600438 -0.00013210326808060432 -0.0001516927831856412 -0.00013694797345157534 -0.00014946967376188355 -0.00010455062718902806 -0.00011835787276639815 -0.00013920696233779542 -0.00012081218872893859 -0.0001328286711743468 -0.00010541118268695353 -0.00011796120845094339 -9.53218550100021e-05 -0.00015523719649607266 -0.00014816720316648913 -0.00012766950990269536 -0.00015236900153107953 -7.998584143352067e-05 -9.957271008020525e-05 -9.137417591836386e-05 -5.0389639603816465e-05 -6.980080587764051e-05 -0.00011152993965865154 -0.00010746459880347149 -6.26858151490133e-05 -6.776657329337158e-05 -0.00010305573270076988 -9.152500233090873e-05 -6.035329214699563e-05 -4.185925605818194e-05 -7.891355622902213e-05 -6.067127226581656e-05 -0.00010265860160839578 0.0015707558856417698 0.0004671030935507239 0.00028902272675699204 0.0004297791043099361 0.0005438197198116345 0.0004340339024840778 0.000976167980366283 -0.00019009157874310239 -0.0002149848773170197 -0.00015578922929205445 9.23560210746107e-06 -5.101467079107056e-05 -0.0002680907415655019 -0.0002597945635885978 -0.0002554078999221709 -0.0002662682082272161 -0.00026332722106856514 -0.0002697782155209588 -0.0002741342757847956 -0.0002690125999163091 -0.00027091833511042946 -0.00027793455970965484 0.00027301882234907066 -0.0001885842568400048 -0.0001041238730854117 -0.00012098637763009273 -0.0001161957532842681 -9.959940146364631e-05 -5.0922307720076625e-05 -9.101102093676014e-05 -6.726182601753113e-05 -7.470226442946382e-05 -8.51555442136191e-05 -5.196282072501783e-05 -6.627341938450536e-05 -6.296334441602332e-05 -5.595143571576967e-05 -3.5273362407674406e-05 -3.663710155216649e-05 -5.487276271227291e-05 -4.3180391691847525e-05 -2.94469801454424e-05 -2.4046168501642282e-05 -2.500615572242238e-05 -1.6038190118597753e-06 1.579788239630688e-05 -1.5098195538286702e-05 -1.6076273337379193e-05 -5.762499090823075e-06 -1.153288326279902e-05 9.244436363538285e-06 9.31759909899798e-06 3.0091044605502472e-05 -9.486172888867406e-06 3.8861031693788625e-06 -5.121143026923785e-06 1.460104755592176e-05 -7.240392499267571e-05 -4.00250640379479e-05 -3.854006139570449e-05 -4.533120264903819e-05 6.563835412488479e-06 4.1359737259902855e-05 -1.055637967316997e-05 -3.155971852643559e-05 2.8442924145491208e-05 2.025757539243227e-05 3.248268841733795e-05 2.068791955400566e-05 3.650065042934388e-05 3.559147174430284e-05 2.4535582038764266e-05 5.330227582312049e-05 1.1917348977875241e-05 2.048622971713715e-05 4.629680975307873e-05 2.83809414367185e-05 8.936949877363583e-05 2.8388657229772073e-05 5.1842097204528216e-05 4.45486439570716e-05 6.841572010313214e-05 4.951965693416967e-05 5.9331733665315246e-05 4.207467108301421e-05 4.6160896646273836e-05 4.0478660472300076e-05 6.119566811420006e-05 5.823647645009114e-05 5.2103829744012145e-05 4.873333154729234e-05 5.316372665993223e-05 7.075327494668709e-05 8.369341132202498e-05 6.239200752660858e-05 7.106819792636054e-05 6.345453869339743e-05 7.40388198363104e-05 7.258877733234892e-05 8.008479326566499e-05 5.4960134195424727e-05 5.843113471625042e-05 6.526726556231358e-05 6.708008173749842e-05 7.461008129227568e-05 6.713507036482868e-05 6.758659741025999e-05 5.247005143449644e-05 3.368357229315775e-05 2.9641132215467656e-05 -1.5719482914334863e-05 -3.572568185248223e-06 2.3759718353478936e-05 6.388926133115876e-05 7.780921063284241e-05 7.684438785532263e-05 8.869229134567774e-05 4.277824172908683e-05 -5.53623846187542e-06 1.8292000983873495e-05 1.5473395081029343e-05 7.351527542039977e-05 7.971986557930502e-05 8.468592110223055e-05 8.237104390771572e-05 3.987695915782079e-05 -1.5956420615492744e-05 2.2967996534250223e-05 7.599824879323004e-05 8.561852314908627e-05 7.691714224707285e-05 8.486566964275193e-05 8.948368748898849e-05 9.326759956316168e-05 9.14235362499455e-05 9.451660009400113e-05 8.927172681548913e-05 8.589449564912443e-05 7.060722716002103e-05 6.670209889294963e-05 6.456409089725228e-05 5.5569761582407594e-05 2.8267672719752888e-05 8.199700619363573e-05 8.240838501307016e-05 4.5465202943848114e-05 7.266114398827584e-05 4.844016453977253e-05 3.8599188449435975e-05 5.6674358333464775e-05 2.480971814900657e-05 3.5148205563680006e-05 3.721647672810189e-05 6.726895552752568e-05 6.074617465928804e-05 5.010538976080357e-05 5.474335297897204e-05 5.5619322955928334e-05 4.655140836786609e-05 7.194433488481216e-06 4.6431735736030927e-05 2.4592697155804698e-05 4.490723842430073e-05 3.777889068909328e-05 2.7134929682316402e-05 2.5581389823241827e-05 3.445158652620587e-05 -7.836932577696402e-07 1.0395446217949876e-05 1.3779958249423287e-05 3.9425891626586855e-06 4.928530120250179e-06 -2.2751930027682585e-05 -7.683452775655895e-06 -1.563861772527542e-05 -1.4494614455460492e-05 -4.453576676193878e-05 -2.0535355401775872e-05 -3.0469952802215106e-05 -4.763092788391286e-05 -3.0199073942359678e-05 -1.3156674990171555e-05 -4.0496165035199745e-06 -4.560491367939273e-05 -1.5354364890496286e-05 6.2501036539729445e-06 -3.261276603828443e-05 -3.459298688021017e-05 -2.8030475212565764e-05 -6.231180060937408e-05 4.977500686506839e-06 1.6479465821749662e-05 3.5667692258237254e-05 1.900289839636118e-05 3.756955914270192e-05 -5.247500944959172e-06 -4.292148491943049e-05 -4.406213452167756e-05 -2.5876084745138327e-05 -6.196404325853414e-05 -7.807036043841847e-05 -7.906821396514767e-05 -7.79586573229312e-05 1.8133395356410595e-05 1.283515866240307e-05 2.7592197053309287e-05 -9.250270983945272e-06 5.223359131157729e-05 -8.16575220329976e-06 -3.00711126084733e-05 -3.906193802051228e-05 -6.3092729448284e-05 -1.3425784179453095e-05 3.749291379046522e-05 -3.9978736329383746e-05 4.806313598722242e-06 5.292169453181462e-05 4.1724943017526266e-05 2.4446135434459188e-06 1.9663302468522496e-05 4.5763651512489177e-05 5.3188740883020305e-05 5.163951542540473e-05 6.820700739705956e-05 2.0072118540373908e-05 7.384652216319425e-05 3.4599279157257184e-05 7.440014954291193e-05 6.349365294318208e-05 8.392584372511681e-05 4.430459939612915e-05 5.6233499243806806e-05 6.541029261515037e-05 8.782111687274062e-05 7.873955149996011e-05 7.520655101734118e-05 8.11998968920796e-05 7.11136564520105e-05 8.427962664436419e-05 8.738100961683422e-05 8.108727180402215e-05 8.56640319036001e-05 7.561465010963588e-05 6.254383899551247e-05 6.393792867819121e-05 2.951457478931158e-05 3.0310022596385754e-05 -7.567529485930376e-05 -0.00011767859066789454 -0.00012380178982457303 -0.00012476707651683578 -0.00010552671844266615 -0.00011011870361051533 -9.809094960456732e-05 -8.380697907752881e-05 -8.908080681056987e-05 -0.00010373772569710884 0.00031898361156718015 0.0004943010468747696 -2.11630235322381e-05 0.00018821491419002484 -2.996114805530457e-05 -3.5513763557185765e-05 4.3710496784184156e-05 6.660163658763893e-05 -4.2745070954725214e-05 1.7131421589111785e-05 -6.328269324814139e-06 1.076123011324688e-05 8.713803210372928e-05 1.0066222715052406e-06 1.4775755321156511e-05 -3.1011388927483556e-06 1.7032697768176523e-05 2.738294406243267e-05 -3.333776914345961e-05 -4.7022052598165425e-05 -6.222554645896119e-05 -7.483899641998812e-05 -5.6208340682282916e-05 2.9905795232034976e-05 4.9782718472014195e-05 -8.362973037654562e-05 0.0003040424843019283 -2.1413198518336575e-05 -4.8539363142125254e-05 0.0002938834782533534 -3.831741436847653e-05 0.0008242607232997589 0.0007031052145236646 -6.164376791870843e-05 5.791258478202178e-05 3.90148793071055e-05 9.609162171471447e-05 -6.257432401600823e-05 -3.498432155853666e-05 2.9973698595706148e-05 -1.9053528442578682e-05 8.605594498268266e-05 2.8763880374518565e-05 -8.02172103239098e-05 0.00044628300723948317 0.0006887488743574019 0.0006615870256270937 0.0006784961323967455 -3.0403047990983366e-05 1.365930238203242e-05 0.0006626480332255 0.0006619142830964142 0.00010335957527071728 0.0009084939951444383 -8.133369044660285e-05 -5.194482516826126e-05 -1.4920334563031568e-05 0.00011928615077361555 0.0005368389472921018 0.0007250876154849093 -5.640457608535022e-05 4.366667868225411e-06 0.0002144352504095148 0.000611454571675287 -1.0090911357661639e-06 0.0008343660196897825 0.00032479364769457466 0.00029572876287126403 0.0002183358983228938 0.0007164124311521594 -1.0938224081059236e-05 -2.4319910233262816e-05 3.1006409914211564e-05 1.632492098893026e-05 4.140681432511753e-06 -3.3351048256201125e-05 6.69915462783081e-05 6.347200593011843e-05 8.275052995335913e-05 7.300806524735548e-05 7.07951122733449e-05 0.0002264117611380552 0.0006658997889169362 -1.8542121442611043e-05 -2.1492661607506373e-05 0.0006355237044964724 0.0008304584841457235 9.003158406678477e-05 7.807800581391565e-05 -6.678130179397717e-05 -6.7604012307552e-05 0.0010159539319106279 0.000710995248906873 7.483351613180387e-05 0.0009171984426028839 7.350064233824733e-05 9.638149780939048e-05 0.0007378427270991806 6.993943898608318e-05 5.894101265366217e-05 8.912333006228862e-05 0.0006971342158562354 9.655229087165759e-05 0.0007022702079107174 0.0006970527143016249 5.112495274373949e-05 8.658691825614175e-05 9.710047972337818e-05 9.274721817426424e-05 8.564430505929055e-05 9.827567890271873e-05 7.933149268647397e-05 9.65193823429655e-05 8.173824508510305e-05 9.60516149294658e-05 9.850672203515833e-05 9.21558938053885e-05 9.491444160159963e-05 9.557658207650112e-05 9.735083182508496e-05 8.485550183932593e-05 7.778713820903313e-05 8.415792025015891e-05 8.179680026577493e-05 8.94016037009077e-05 8.46445010101569e-05 -4.861604518790494e-05 4.690193196287742e-05 6.349222210893837e-05 4.908608422744742e-05 5.5839500273156226e-05 4.631213433792371e-05 6.661625959737912e-05 5.891278407991334e-05 8.251265464275928e-05 6.879940112628573e-05 9.31862916235178e-05 2.8583455311561586e-05 2.5144525898193193e-05 0.0005034018023965215 0.0006601463273243145 0.0006207778072669025 0.0006832316578199416 4.724337748294291e-05 -4.98110717208161e-06 -3.0430073564378874e-05 0.0006818693785162723 0.0005289001017884939 3.0697670502822665e-05 3.3064281644044353e-06 0.0006441799445303627 -7.534310248214084e-05 0.0010137280583319545 0.0009820167096758915 6.607474909185169e-05 6.0739027767689355e-05 4.260881374074114e-05 5.0160610960054494e-05 9.878627171995132e-05 9.675845693330608e-05 9.320174771148876e-05 9.741776366046674e-05 9.091026731991927e-05 9.41077866326759e-05 9.539588735251394e-05 9.69895620680526e-05 9.606532110317843e-05 8.619633848401463e-05 9.321365575275139e-05 9.401835128976333e-05 9.487739394735036e-05 9.747330509591487e-05 8.457806939940692e-05 9.5399186767660