<?xml version="1.0"?>
<VTKFile type="UnstructuredGrid"  version="0.1"  >
<UnstructuredGrid>
<Piece  NumberOfPoints="1289" NumberOfCells="2413">
<Points>
<DataArray  type="Float64"  NumberOfComponents="3"  format="ascii">0 0 0  0 0.41 0  2.2 0.41 0  2.2 0 0  0.1 0.1 0  0.1 0.3 0  0.8 0.3 0  0.8 0.1 0  0.25 0.2 0  0.248976 0.210065 0  0.245948 0.219718 0  0.241038 0.228563 0  0.234448 0.23624 0  0.226448 0.242432 0  0.217365 0.246888 0  0.207571 0.249423 0  0.197468 0.249936 0  0.187467 0.248404 0  0.17798 0.24489 0  0.169395 0.239539 0  0.162062 0.232569 0  0.156283 0.224265 0  0.152293 0.214968 0  0.150257 0.205058 0  0.150257 0.194942 0  0.152293 0.185032 0  0.156283 0.175735 0  0.162062 0.167431 0  0.169395 0.160461 0  0.17798 0.15511 0  0.187467 0.151596 0  0.197468 0.150064 0  0.207571 0.150577 0  0.217365 0.153112 0  0.226448 0.157568 0  0.234448 0.16376 0  0.241038 0.171437 0  0.245948 0.180282 0  0.248976 0.189935 0  1.1 0 0  1.1 0.41 0  0.1 0.2 0  0.45 0.1 0  0.45 0.3 0  0.55 0 0  0.275 0.1 0  0.275 0.3 0  0.275 0 0  0.55 0.41 0  0 0.205 0  0.825 0 0  0.825 0.41 0  0.275 0.41 0  0.1 0.15 0  0.1875 0.1 0  0.1 0.25 0  0.1875 0.3 0  0.132322 0.2 0  0.241426 0.253518 0  0.241426 0.146482 0  0.264574 0.17974 0  0.264574 0.22026 0  0.138434 0.187348 0  0.153372 0.150948 0  0.148413 0.164094 0  0.176495 0.136535 0  0.22768 0.143571 0  0.138434 0.212652 0  0.148413 0.235906 0  0.176495 0.263465 0  0.22768 0.256429 0  0.23125 0.3 0  0.24769 0.24094 0  0.23125 0.1 0  0.24769 0.15906 0  0.26253 0.193641 0  0.190482 0.137872 0  0.166753 0.146661 0  0.157737 0.244461 0  0.190482 0.262128 0  0.203107 0.261264 0  0.253635 0.22977 0  0.203107 0.138736 0  0.253635 0.17023 0  0.261028 0.206206 0  0.167707 0.251809 0  0.143629 0.224191 0  0.215302 0.2591 0  0.270465 0.245894 0  0.215302 0.1409 0  0.270465 0.154106 0  0.284052 0.202587 0  0.14375 0.3 0  0.209375 0.3 0  0.225966 0.278501 0  0.209375 0.1 0  0.225966 0.121499 0  0.211613 0.273759 0  0.211613 0.126241 0  0.143629 0.175809 0  0.1 0.175 0  0.133484 0.164832 0  0.144491 0.249539 0  0.1 0.225 0  0.133484 0.235168 0  0.3625 0.3 0  0.25691 0.253381 0  0.25691 0.146619 0  0.277205 0.188698 0  0.184724 0.275712 0  0.237372 0.268285 0  0.184724 0.124288 0  0.237372 0.131715 0  0.197578 0.273149 0  0.193656 0.286994 0  0.197578 0.126851 0  0.193656 0.113006 0  0.122953 0.187671 0  0.118362 0.153758 0  0.155372 0.258107 0  0.122953 0.212329 0  0.118362 0.246242 0  0.276394 0.27264 0  0.276394 0.12736 0  0.280965 0.170013 0  0.253125 0.3 0  0.14375 0.1 0  0.253125 0.1 0  0.269489 0.26014 0  0.269489 0.13986 0  0.303639 0.184297 0  0.165625 0.3 0  0.134742 0.273113 0  0.257831 0.274737 0  0.255279 0.128499 0  0.3625 0.1 0  0.165625 0.1 0  0.162031 0.132368 0  0.134955 0.126405 0  0.149334 0.125568 0  0.142936 0.139597 0  0.12695 0.140259 0  0.242514 0.285501 0  0.242514 0.114499 0  0.1 0.125 0  0.117483 0.12555 0  0.11154 0.139776 0  0.121875 0.1 0  0.109143 0.1125 0  0.126805 0.114 0  0.220313 0.29129 0  0.351562 0.287369 0  0.207222 0.2866 0  0.220312 0.10871 0  0.1375 0 0  0.20625 0 0  0.207222 0.1134 0  0.11722 0.17118 0  0.1 0.1625 0  0.0778409 0.16875 0  0.0862762 0.15625 0  0 0.15375 0  0 0.1025 0  0.11722 0.22882 0  0.1 0.2375 0  0 0.3075 0  0.0862762 0.23125 0  0.0598995 0.222547 0  0.0860223 0.2125 0  0.289584 0.181469 0  0.300267 0.16446 0  0.163832 0.269071 0  0.149597 0.273325 0  0.1 0.275 0  0.268498 0.285953 0  0.31875 0.3 0  0.294154 0.254672 0  0.296875 0.3 0  0.293558 0.271845 0  0.285095 0.286799 0  0.324298 0.264316 0  0.307866 0.263745 0  0.317093 0.234901 0  0.315485 0.281219 0  0.316547 0.250625 0  0.344693 0.243731 0  0.331592 0.251147 0  0.35129 0.270663 0  0.338689 0.263683 0  0.340625 0.3 0  0.249849 0.264383 0  0.265097 0.11422 0  0.284688 0.156136 0  0.242188 0.324017 0  0.0856613 0.2625 0  0.132812 0.0612217 0  0.264062 0.0612217 0  0.198437 0.07598340000000001 0  0.0860223 0.1375 0  0.0794526 0.191089 0  0.285228 0.140397 0  0.298655 0.148737 0  0.31875 0.1 0  0.327335 0.15374 0  0.296875 0.1 0  0.312289 0.155283 0  0.313348 0.135607 0  0.321802 0.173916 0  0.298433 0.134116 0  0.112124 0.2625 0  0.127526 0.259083 0  0.121875 0.3 0  0.0682687 0.241503 0  0.1 0.2875 0  0.117762 0.28125 0  0.107813 0.3 0  0.103906 0.313849 0  0.0778409 0.28125 0  0.1375 0.41 0  0.0862762 0.29375 0  0.08886860000000001 0.24375 0  0.307812 0.338778 0  0.307812 0.292227 0  0.33216 0.279164 0  0.387888 0.266414 0  0.264063 0.31948 0  0.110937 0.07598340000000001 0  0.242188 0.07598340000000001 0  0.319914 0.11839 0  0.340625 0.1 0  0.334448 0.133793 0  0.329687 0.108539 0  0.346259 0.118491 0  0.360334 0.173636 0  0.327539 0.205033 0  0.132812 0.288712 0  0.362436 0.278836 0  0.368105 0.259418 0  0.4125 0.41 0  0.329687 0.324017 0  0.329687 0.292306 0  0.285938 0.318952 0  0.417187 0.338778 0  0.324481 0.14148 0  0.351562 0.106771 0  0.40625 0.1 0  0.341028 0.168342 0  0.319221 0.190479 0  0.335292 0.184501 0  0.305563 0.20794 0  0.220313 0.31948 0  0.132812 0.332772 0  0.0865876 0.311259 0  0.0598995 0.302453 0  0.0906541 0.343255 0  0.353543 0.255837 0  0.36574 0.237633 0  0.405007 0.254279 0  0.275795 0.352123 0  0.4125 0 0  0.35493 0.137394 0  0.366563 0.120618 0  0.35917 0.205246 0  0.198438 0.318952 0  0.0626109 0.263892 0  0.40625 0.3 0  0.354809 0.155936 0  0.386512 0.146872 0  0.373101 0.159939 0  0.384375 0.1 0  0.343394 0.19929 0  0.350682 0.185683 0  0.368101 0.189748 0  0.344016 0.221511 0  0.391108 0.213329 0  0.376279 0.204783 0  0.398843 0.182768 0  0.375804 0.222746 0  0.390665 0.196958 0  0.394004 0.23518 0  0.359883 0.222828 0  0.419908 0.204359 0  0.404243 0.204783 0  0.412615 0.224526 0  0.20625 0.41 0  0.165625 0.325257 0  0.0347982 0.244954 0  0.379558 0.247154 0  0.34165 0.147603 0  0.372264 0.136992 0  0.388988 0.121989 0  0.373437 0.108554 0  0.351562 0.31948 0  0.391367 0.16527 0  0.399572 0.223324 0  0.452011 0.227371 0  0.40877 0.239392 0  0.431491 0.237337 0  0.421224 0.250459 0  0.449619 0.262098 0  0.418865 0.276779 0  0.437063 0.252274 0  0.415673 0.263227 0  0.430988 0.266772 0  0.402767 0.273419 0  0.452967 0.244883 0  0.428125 0.3 0  0.408502 0.286186 0  0.384375 0.3 0  0.392267 0.285807 0  0.465927 0.219339 0  0.43489 0.283846 0  0.376424 0.286289 0  0.625 0.3 0  0.473533 0.205186 0  0.461713 0.255517 0  0.5375 0.3 0  0.465725 0.235405 0  0.44631 0.201425 0  0.471875 0.3 0  0.494307 0.227729 0  0.459448 0.206736 0  0.462294 0.180792 0  0.478933 0.227536 0  0.486793 0.21381 0  0.486322 0.251373 0  0.50065 0.215318 0  0.54005 0.175389 0  0.474633 0.189893 0  0.512916 0.208697 0  0.49531 0.199967 0  0.475889 0.175275 0  0.625 0.1 0  0.459311 0.153933 0  0.513645 0.242704 0  0.392892 0.248539 0  0.374815 0.271913 0  0.365974 0.14871 0  0.395312 0.109184 0  0.417061 0.123981 0  0.483196 0.277003 0  0.381967 0.179632 0  0.429898 0.219374 0  0.433473 0.206165 0  0.43149 0.181038 0  0.444208 0.215487 0  0.472985 0.247309 0  0.49375 0.3 0  0.475579 0.262714 0  0.49916 0.274293 0  0.501175 0.184809 0  0.514164 0.225681 0  0.543648 0.214977 0  0.5341630000000001 0.23481 0  0.527396 0.216171 0  0.5375 0.1 0  0.534548 0.202315 0  0.561545 0.192513 0  0.5494289999999999 0.201221 0  0.570923 0.218346 0  0.412582 0.149833 0  0.489327 0.264745 0  0.502439 0.254775 0  0.462391 0.271166 0  0.496775 0.241732 0  0.5294410000000001 0.268606 0  0.482812 0.291099 0  0.46879 0.285038 0  0.452663 0.284065 0  0.51789 0.257882 0  0.53408 0.252026 0  0.560142 0.243543 0  0.545708 0.243474 0  0.547532 0.229019 0  0.55282 0.265323 0  0.398971 0.153424 0  0.400349 0.135684 0  0.410135 0.168145 0  0.428823 0.161323 0  0.415266 0.183779 0  0.329687 0.0810483 0  0.395312 0.0612217 0  0.373437 0.318952 0  0.439062 0.324017 0  0.561816 0.229354 0  0.585029 0.239287 0  0.431827 0.139854 0  0.446796 0.168929 0  0.351562 0.07598340000000001 0  0.395313 0.318944 0  0.54337 0.150762 0  0.460937 0.31948 0  0.418412 0.137529 0  0.428125 0.1 0  0.442783 0.152332 0  0.450742 0.134294 0  0.373437 0.0805201 0  0.384383 0.342558 0  0.482812 0.318952 0  0.429239 0.127457 0  0.444274 0.117405 0  0.426548 0.113815 0  0.49375 0.1 0  0.488954 0.113984 0  0.457973 0.121842 0  0.471621 0.137346 0  0.515625 0.325257 0  0.48125 0.41 0  0.417187 0.07598340000000001 0  0.496363 0.126778 0  0.479043 0.155715 0  0.439062 0.0805201 0  0.481795 0.126919 0  0.471875 0.1 0  0.489227 0.142159 0  0.515625 0.1 0  0.520062 0.147117 0  0.501244 0.161791 0  0.505431 0.112984 0  0.505344 0.14029 0  0.526563 0.119081 0  0.5181750000000001 0.131908 0  0.539868 0.136937 0  0.460937 0.108383 0  0.474242 0.114415 0  0.460937 0.0810483 0  0.487841 0.167168 0  0.526563 0.0612217 0  0.526563 0.106406 0  0.537619 0.112743 0  0.58125 0.1 0  0.559375 0.1 0  0.482812 0.08105569999999999 0  0.471883 0.0587655 0  0.570312 0.129396 0  0.548437 0.07598340000000001 0  0.504687 0.08105569999999999 0  0.49375 0.0470127 0  0.570312 0.112663 0  0.592798 0.12103 0  0.553986 0.12103 0  0.570312 0.0805201 0  0.48125 0 0  0.114787 0.2 0  0.160769 0.284765 0  0.175816 0.288361 0  0.162602 0.116048 0  0.154687 0.07598340000000001 0  0.176562 0.0805201 0  0.0598995 0.147547 0  0.307812 0.109924 0  0.291279 0.117157 0  0.278491 0.112989 0  0.285937 0.07598340000000001 0  0.307812 0.0805201 0  0.296928 0.196743 0  0.318141 0.218507 0  0.330208 0.227509 0  0.301397 0.225668 0  0.302706 0.241401 0  0.292574 0.21424 0  0.282762 0.230935 0  0.284351 0.244775 0  0.269553 0.23261 0  0.278572 0.217242 0  0.226924 0.342606 0  0.446928 0.185396 0  0.515625 0.3 0  0.504687 0.288879 0  0.515256 0.276534 0  0.529479 0.285328 0  0.58125 0.3 0  0.541969 0.272936 0  0.559375 0.3 0  0.556796 0.282529 0  0.543473 0.287206 0  0.581429 0.267774 0  0.566728 0.271171 0  0.570869 0.255585 0  0.577404 0.283865 0  0.603125 0.3 0  0.597531 0.28035 0  0.570312 0.338778 0  0.592188 0.292492 0  0.603513 0.256094 0  0.614063 0.286265 0  0.610329 0.27064 0  0.632708 0.251285 0  0.657223 0.261594 0  0.618789 0.257807 0  0.614188 0.22987 0  0.630935 0.265614 
[...]
<PointData  Scalars="p"> 
	<DataArray  type="Float64"  Name="p"  format="ascii">
0.000701082838226769 0.0006749745946413589 -1.557821985542387e-07 -6.532697921580583e-08 0.0007602663792152415 0.0007527406549155859 5.888603093097729e-05 5.712628432033693e-05 -0.0002645207331649111 -0.00027851669241754694 -0.00033288178815848025 -0.0003361708190126479 -0.0003295909949267945 -0.00040501914612375346 -0.00034797752714079463 -0.00012970430798961224 -0.00029213675804874343 -0.0004742655993270228 -0.00031845680624242363 1.327915648763723e-05 0.0005180505780948303 0.0011601623472004185 0.0016811298024510253 0.0020096558863570545 0.0020043113514143507 0.0016633900405063269 0.0011448678217117496 0.0005046611179153199 -9.060638313035109e-05 -0.00032817849815737634 -0.0004435667389359486 -0.000299160264830348 -0.00012739656411243054 -0.00034762299738416437 -0.0004042382563354496 -0.0003243732712966679 -0.00033273713319452973 -0.00033196736073422544 -0.0002793319533582836 8.831297345842024e-05 8.361364995134893e-05 0.0014013206804217588 -0.0001513170504253743 -0.00015022811471848845 -7.427392108267094e-05 -7.964508362749137e-05 -8.657381805085251e-05 0.000172492080082048 -5.73324686649202e-05 0.000997570679416373 4.095140945721006e-05 4.174335693518486e-05 0.00019562541091555088 0.001070494571117848 0.0002700814777220189 0.001070233061707237 0.00028085257822922866 0.0018199990377982646 -0.00022602866308760525 -0.00022413566393984078 -0.00028258881716527453 -0.0002850829852314578 0.0017701448596485101 0.0006037921981191225 0.0009989118687379012 1.323297699557235e-06 -0.00034886480247382225 0.001783718821776601 0.0010077730404538638 1.8613410911071956e-05 -0.00034750798342830287 4.403529220251584e-05 -0.00020116624812147296 4.266007664351068e-05 -0.0002022597310839154 -0.0002796372968818407 -0.0001942277560081335 0.00012231650355238178 0.0005038639027796947 -0.00020308527627017418 -0.0001739109563386092 -0.00031241848506824454 -0.0001759639120958825 -0.0003132977160478563 -0.00027963682090434986 9.577665067441623e-05 0.0014403766766341397 -0.0001623599678985479 -0.0002721340194910557 -0.00016121993405329303 -0.0002705260922973977 -0.0002725320523437154 0.0005938690044485132 0.00012379526584821592 -0.00017830216800925487 0.00015276505503484405 -0.0001684949648967152 -0.00011456472442629773 -0.00011488399632958018 0.0014258640717358096 0.0012799086433374707 0.0012791088848526108 0.0008217405547977559 0.0013002019797162532 0.0013020556153663142 -0.00016872499666339063 -0.00024083046170418135 -0.00024272466371281972 -0.0002765787135574124 8.707667170046801e-05 -0.00020788335455800038 7.934967718410588e-05 -0.00021365427159520707 -3.9943530347322035e-05 0.0001402495045200545 -2.6606327244920858e-05 0.0001447427113545024 0.0016067222410948456 0.0011329317869002314 0.0005491334736141566 0.0016053435450578172 0.0011387853364680184 -0.0002173562140524288 -0.0002248289422029785 -0.00027413129099759857 -5.795188373470597e-05 0.0005929280200816543 -3.853927914358552e-05 -0.00023412180332009084 -0.0002375544562470801 -0.0002655353626745632 0.00044345954224328076 0.0007761884709579077 -0.00023117521484339063 -0.00021904623397358438 -0.0001691656642704104 0.000464714026023084 0.0004070789555197778 0.0007552274929728697 0.0006127838503378944 0.0007016446676815814 0.0009092930899054448 -0.00010320823816241646 -9.265298803832488e-05 0.000879193119982155 0.0008452847480406205 0.000969236281705662 0.0007035348083104252 0.0007909737389851929 0.0007419934191956624 -2.6495799054887074e-06 -0.00020363812639282908 2.6357408611196533e-05 -6.803692733629636e-07 0.0006153487463739242 0.00040539356503216037 4.629695747875511e-05 0.0013439332685852181 0.001172645701037151 0.0011340499721453567 0.0010796791365680816 0.000931283999411595 0.000789409450048521 0.0013464092716800847 0.0011940049097714234 0.0007581465655737837 0.001154377209131267 0.0010894569648693293 0.0012500309865759076 -0.0002712250424299402 -0.0002666808679106208 0.0003546590408925034 0.0005890962075177636 0.0008787221850209856 -0.00017240101159094614 -0.00014521779076768173 -0.00027337384886023697 -0.00013975377216625954 -0.00025272183307751064 -0.00018979927737297145 -0.00025473646760672405 -0.0002503283835709903 -0.0002613337626135852 -0.00022083361051658532 -0.0002557213633577242 -0.0002504197966940561 -0.0002547509584391364 -0.00023729034520954996 -0.00024465632075991597 -0.00017800186735124782 -0.00022864259828960217 -0.0001897226657322477 -0.00026691768288554963 0.00014319565813376142 0.0009715037508783135 0.0006104423432253301 0.00013635363966609188 0.00034520078239935005 0.000951897663057734 0.001212089490334602 -0.000261056317933778 -0.0002633117140263847 -0.00014207712684193117 -0.0002567457986936934 -0.00014586085281307143 -0.0002622533405795273 -0.00025448382011996864 -0.0002587423674358843 -0.00025696631337004456 0.0009571710913941915 0.0009149005365296131 0.0007003138254941744 0.0010402291117197202 0.0008189463345549579 0.0008009449899754927 0.000731760332177891 0.0006979947866759186 0.0008482552480508656 0.0005873885199644352 0.0007949698769819555 0.0010982731564444866 1.9808385098735528e-05 -0.00018444779158470812 -0.00023157717833686015 -0.00022485503328357987 4.7208783746061946e-05 0.0006843338119842324 0.00015042222235510605 -0.0002303468092320791 -0.00017484865898190655 -0.000244734161229933 -0.0001958098635702006 -0.0002242356411020791 -0.00024348313871866707 -0.0002560870193544857 0.0006826076848616301 -0.0002264944030077502 -0.0002366041030337829 -5.3664533398857574e-05 -6.244515479014727e-05 -0.00020178134685966908 -1.7391850233732855e-05 -9.773592131552573e-05 -0.00025325718580491557 -0.00018905957719643615 -0.00016743215967948477 -0.00025189093497250534 -0.00025941358136874086 -0.0002532671170669279 -0.0002648059502935622 0.00018507307924431126 0.0006046197099741586 0.0007339259261356938 0.0007735920140099024 0.0006613281573880736 -0.00024551295833212647 -0.00024107689428038 -0.00021814569565464518 0.0001456193252825956 -8.062367646128928e-05 -0.00024210350738022713 -0.00021935344807495565 -0.00024277081446528597 0.0003181925168896139 0.0009256798015722679 -0.00016646944400560313 -0.00024618214494199483 -0.0002303719959685106 -0.00023798608180398845 -0.00017246361981657264 -0.00024965351523580955 -0.0002469102943246293 -0.00023895813288973494 -0.0002498632563351004 -0.0002268543118206403 -0.00023459986995783726 -0.00022291781671049702 -0.000235626880806001 -0.00022693839198054727 -0.0002263466967149935 -0.0002431658000593301 -0.00020832118515375255 -0.0002187164341915785 -0.00021430452693402122 0.0004166208009916664 0.00046997461529852964 0.0009526205190399169 -0.00023434752763524914 -0.00025042272189750736 -0.0002327893939596992 -0.0002122890408229484 -0.00019762446400567872 -0.00010408151291504703 -0.0002283599778986978 -0.0002224833711207133 -0.00018473499285930132 -0.00021750189151728764 -0.00020165188302720042 -0.00020840286447789224 -0.00018431057742162045 -0.00019692544446854642 -0.00019617988943173531 -0.00020844745899932697 -0.00019626725223171343 -0.00021071344233977124 -0.00018411295303886986 -0.000160504270004685 -0.0001929484096351106 -0.00017750209645993106 -0.00019965628444623812 -0.0001718770451927212 -0.0001805198209001133 -0.00020792798219004818 -1.79050689234132e-05 -0.0001643445592015564 -0.00017470524219826924 -8.616730907213658e-05 -0.00017290475260893498 -0.00018836613804507687 -0.00013625307328389162 -0.00014487622986278763 -0.00017695520985129285 -0.00017577964966010944 -0.00016034664117994566 -0.0001516414563659859 -0.00015285658163226957 -0.00013754020268785873 -9.591221263903455e-05 -0.00016368122013510607 -0.00012429146952459355 -0.0001428288984198666 -0.00016378526168631075 -1.8568376192090746e-05 -0.0001793688654202715 -0.0001251430113014759 -0.00022635843279411962 -0.0002231846721057433 -0.0002398003427496213 -0.00018885603170634997 -0.00019982330237681392 -0.00014664922867578043 -0.0002326861432653406 -0.00020189260921571692 -0.0001984411931515684 -0.00020112603866418629 -0.00019047267154359462 -0.0001660902666596578 -0.00011859579513097629 -0.00016046157511812539 -0.00013420496479953954 -0.000137611069280031 -0.00012395569996739487 -9.068687644552364e-05 -0.00010259239658897948 -0.00010886522781817158 -8.704192769255493e-05 -0.00010050015571985799 -7.043612312166674e-05 -8.386122532790606e-05 -6.0551199159669005e-05 -0.00021457792754849022 -0.00014684055650075398 -0.00013599146140604937 -0.000169374900334926 -0.00014289133145925463 -0.00010579862398589464 -0.00013652576464625235 -0.00015354245409184898 -0.0001666859845442401 -0.00011968823325883527 -0.00010260809525570586 -7.418504174321394e-05 -9.030299961316903e-05 -8.73293402778024e-05 -8.152661442835152e-05 -0.00022333793778583455 -0.0002187144949383759 -0.0002172024333565223 -0.00020437484114482806 -0.0002124302271796384 -9.55673684986571e-05 -9.195100545090674e-05 -0.00012520611670372721 -0.00011714397942261877 -7.146764558964094e-05 -4.679713877535118e-05 -0.00019888260828422824 -0.00018999801151206849 -9.26971170519371e-05 -0.00012328919819193848 -9.282768815971871e-05 -0.00011820453114044107 -0.00020597909336614507 -0.00016255377624329803 -0.00019293997173287978 -0.00018201314243286422 -0.00012769159796298212 -7.038450351311984e-05 -0.00011447675682780177 -0.0001929727653157896 -0.00017264936696699703 -0.00018611627407577052 -0.0001231005827311951 -0.00013759420865678946 -0.00016914419597728795 -0.00016456118527061908 -8.363893162308053e-05 -8.432332388292769e-05 -0.00012081970712637981 -0.00013637468698265566 -0.00016108343263513788 -0.00013205395203617562 -0.00015152812667412706 -0.00013683742084712652 -0.00014929080379829575 -0.00010441263215458144 -0.0001181476208337349 -0.0001390343066832771 -0.00012064459323632169 -0.0001326249128719022 -0.00010523208711753518 -0.00011775772728452461 -9.512329765962972e-05 -0.0001551285845397017 -0.0001480293759130477 -0.000127596512122233 -0.00015223457333099903 -7.990738245407396e-05 -9.942269395615056e-05 -9.122047735658545e-05 -5.03328892505677e-05 -6.969581487883279e-05 -0.00011144263721642361 -0.00010740401748928772 -6.25659130774091e-05 -6.768419169134982e-05 -0.00010295458217125786 -9.147111088474204e-05 -6.026060339432791e-05 -4.182073334520593e-05 -7.876782126302329e-05 -6.0593885620583834e-05 -0.00010261160350666299 0.0015707520144997915 0.00046711146915158497 0.00028903268807647876 0.00042976281939624187 0.0005438042246691134 0.0004340172430489684 0.0009761603546068293 -0.00019013144108031888 -0.0002150062606030219 -0.00015584004405131427 9.21828001283136e-06 -5.1042377458763786e-05 -0.0002680926117880415 -0.00025978397828233484 -0.0002553931149734964 -0.0002662500612604803 -0.0002633006680033316 -0.00026976649405178603 -0.00027411057391507523 -0.0002689879635239871 -0.0002708949711669227 -0.00027792016041790153 0.0002730278331469058 -0.00018855932215324224 -0.00010426535977430776 -0.0001211494025379991 -0.00011638018549017845 -9.97646044230122e-05 -5.098170769925999e-05 -9.118580017913037e-05 -6.736229716459192e-05 -7.483465272641282e-05 -8.530142517632175e-05 -5.205642642611265e-05 -6.639967685486548e-05 -6.310126738435949e-05 -5.6037049174785e-05 -3.5284199211475925e-05 -3.6660109117584805e-05 -5.4944588254517764e-05 -4.3219063782585524e-05 -2.9477667092127447e-05 -2.401895416187167e-05 -2.499521806017137e-05 -1.5279479100914507e-06 1.5976253117141654e-05 -1.5067001621033028e-05 -1.6095300965675417e-05 -5.6753104375507884e-06 -1.1516137769400593e-05 9.385406207818671e-06 9.369814659781094e-06 3.0286893923925684e-05 -9.39866247088987e-06 4.026176583384405e-06 -5.02642240516107e-06 1.4781981119576434e-05 -7.249710096985235e-05 -4.006813595021981e-05 -3.8586976926412236e-05 -4.542174792316249e-05 6.707752877801543e-06 4.16194649618417e-05 -1.0501889430451002e-05 -3.157153811510195e-05 2.8673818608078745e-05 2.0428949611841687e-05 3.264160356844082e-05 2.0883903948024438e-05 3.6742957856567604e-05 3.5819007531783266e-05 2.4714814930513588e-05 5.3485749681052744e-05 1.2048462011228639e-05 2.0598976409808683e-05 4.6533900480507044e-05 2.838649137165157e-05 8.935712464657597e-05 2.8471269511667113e-05 5.211471715548281e-05 4.4602560229239685e-05 6.86758372236479e-05 4.97943620679974e-05 5.9605398080590304e-05 4.230908204801633e-05 4.635158245827033e-05 4.0676286417738466e-05 6.143662925358752e-05 5.8475685945372414e-05 5.235583131035073e-05 4.895949957741473e-05 5.337427013811276e-05 7.093620793253076e-05 8.38056650934518e-05 6.265682702386525e-05 7.129069922067758e-05 6.366480226023595e-05 7.414485181656763e-05 7.27318086837629e-05 8.026543016452579e-05 5.5125821409277746e-05 5.861609397370413e-05 6.541846369056017e-05 6.719460635336049e-05 7.465919419536525e-05 6.722414907794311e-05 6.763380601510571e-05 5.2623052369509975e-05 3.392742581111519e-05 2.9848555639503974e-05 -1.5683902857225355e-05 -3.5092072978679164e-06 2.392596105723433e-05 6.398467962230597e-05 7.795460322618433e-05 7.705526737537621e-05 8.878875057430357e-05 4.2955111405741726e-05 -5.468297164162482e-06 1.8332024833885853e-05 1.5603783840172785e-05 7.373333017698225e-05 7.984647636285221e-05 8.48207049165241e-05 8.25409954040568e-05 4.0059844688939065e-05 -1.5948425570852213e-05 2.3130136794295015e-05 7.58513774355351e-05 8.567896406860197e-05 7.692349376083557e-05 8.49007420661951e-05 8.95312271625563e-05 9.327308895997831e-05 9.147165813944657e-05 9.45064779191531e-05 8.934147107378058e-05 8.60104307420833e-05 7.062943616734289e-05 6.646349695546815e-05 6.451693094712023e-05 5.55884420385082e-05 2.807837259382932e-05 8.188031233647459e-05 8.239021483288795e-05 4.533900911594811e-05 7.25751390246314e-05 4.84049416662141e-05 3.857039092894375e-05 5.653910498709004e-05 2.4695729763238428e-05 3.504155250472878e-05 3.698688901353472e-05 6.71174899603714e-05 6.053754366556865e-05 4.9873803629379244e-05 5.446220841006407e-05 5.536424625520385e-05 4.6279666630316576e-05 7.063913374494011e-06 4.6153993496915354e-05 2.4369131222721908e-05 4.470651139451381e-05 3.751949788382862e-05 2.690950320076494e-05 2.5399561894643378e-05 3.4277242660104315e-05 -8.504581861241265e-07 1.0249042053262263e-05 1.3666420881138578e-05 3.926909312225208e-06 4.8763920389689715e-06 -2.272364691840193e-05 -7.688107883630216e-06 -1.5648422609337343e-05 -1.4496743775451825e-05 -4.443958805793789e-05 -2.0560495636343385e-05 -3.0416183855601203e-05 -4.755365415389253e-05 -3.0166784724848286e-05 -1.3187216292369985e-05 -4.1485263914919126e-06 -4.5529892105791966e-05 -1.5422185765788212e-05 6.092008147350285e-06 -3.2596856486485546e-05 -3.457933798873053e-05 -2.8044524478587447e-05 -6.217235275376809e-05 4.830028221369555e-06 1.6285530404977444e-05 3.5411117088166816e-05 1.883612094956488e-05 3.73303152924191e-05 -5.336514436150268e-06 -4.28848474064965e-05 -4.40146310055016e-05 -2.590224829280622e-05 -6.183238937925623e-05 -7.790211037833629e-05 -7.888940347858631e-05 -7.781788536544515e-05 1.795259162517767e-05 1.266241566439958e-05 2.7382089522273275e-05 -9.299267563441086e-06 5.1969515996549006e-05 -8.256691467504506e-06 -3.005325317992141e-05 -3.9003039468526326e-05 -6.299561596474792e-05 -1.3435164384458988e-05 3.7289492561327996e-05 -3.993842543074759e-05 4.713955627084386e-06 5.269643318471637e-05 4.149546669986708e-05 2.357450663067213e-06 1.9488253619878785e-05 4.555397297698709e-05 5.298076643957954e-05 5.145240627289305e-05 6.799173386140125e-05 1.991387269767004e-05 7.373033318740543e-05 3.438513836844004e-05 7.423374220992214e-05 6.333678749202083e-05 8.391494830940715e-05 4.410549917384163e-05 5.604272567148945e-05 6.52281245801973e-05 8.771673870498626e-05 7.854139905630474e-05 7.500867471383364e-05 8.103698890158234e-05 7.086702424702877e-05 8.41320615276519e-05 8.730085207565277e-05 8.094370979771335e-05 8.56333112283856e-05 7.540048370744065e-05 6.229438744927657e-05 6.366465744392114e-05 2.9511301199729447e-05 3.029600512280388e-05 -7.573938137985321e-05 -0.00011761347236079192 -0.0001236532831930436 -0.000124576182595071 -0.00010533031619341979 -0.00010999057174576634 -9.801332540137202e-05 -8.371435483666124e-05 -8.913696169551899e-05 -0.00010371260225665354 0.0003189664711462561 0.0004942834185745397 -2.117139210448813e-05 0.00018822482611856092 -3.001775257124491e-05 -3.556908560765907e-05 4.386701839206377e-05 6.678427135188529e-05 -4.279264012223637e-05 1.7289545606048504e-05 -6.33451598579891e-06 1.0883299381090249e-05 8.704509730928342e-05 1.0058774782055817e-06 1.4775412327812712e-05 -3.0951996271917886e-06 1.6982054961126888e-05 2.7329310832064425e-05 -3.332793863856054e-05 -4.704773659793972e-05 -6.224033672534761e-05 -7.490596430051935e-05 -5.612917143350639e-05 2.971593141234449e-05 4.958360334513659e-05 -8.35944707670622e-05 0.0003040511548731631 -2.144646855697922e-05 -4.8630530262563676e-05 0.0002938926932431021 -3.8372596389401796e-05 0.0008242508784815615 0.0007031080478480081 -6.171675497952694e-05 5.78996704309864e-05 3.9195485612245084e-05 9.60909280808247e-05 -6.257934995121327e-05 -3.4999025152382986e-05 2.995611952625511e-05 -1.906258838655573e-05 8.604062902717923e-05 2.89571494574435e-05 -8.019231517024211e-05 0.00044629195402795036 0.0006887368645690118 0.0006615910164155807 0.0006784992711574857 -3.0405192245143742e-05 1.3805088497041732e-05 0.0006626346558523874 0.0006619178519852587 0.00010336320714165315 0.0009084936055754639 -8.127142906282368e-05 -5.1968061619585995e-05 -1.4904121900436133e-05 0.00011927009035943523 0.0005368464239925336 0.0007250899755605162 -5.640270178087883e-05 4.479298951353382e-06 0.00021441698721970853 0.0006114602019531367 -9.279046420816009e-07 0.0008343668827018598 0.0003247745390510072 0.0002957096854284313 0.00021831724065192825 0.0007164013901017626 -1.0972708766259598e-05 -2.4300153155048964e-05 3.0789446771883926e-05 1.6158987173900486e-05 4.017210729413238e-06 -3.3290678274565746e-05 6.691115830504076e-05 6.34208753129881e-05 8.283603442125314e-05 7.321008577849577e-05 7.059996551203564e-05 0.00022641944958335847 0.0006659032805265948 -1.855642199464918e-05 -2.1488620248955195e-05 0.0006355288656979592 0.000830449427038609 9.021766369094284e-05 7.826537839224722e-05 -6.681923852887338e-05 -6.766919681962019e-05 0.0010159487634836702 0.0007109842066055086 7.49105614497498e-05 0.0009171909142388072 7.371009375141639e-05 9.653914638717273e-05 0.0007378322675951713 7.006445037794045e-05 5.894107420212768e-05 8.928707063647155e-05 0.000697122903290872 9.668004447831504e-05 0.0007022589331895559 0.0006970413149417148 5.100599630041828e-05 8.678929148630026e-05 9.686831122824139e-05 9.285842521945035e-05 8.583229378584433e-05 9.818928700759242e-05 7.959066059426405e-05 9.666832098115656e-05 8.195091186422108e-05 9.621553953870268e-05 9.84509641535965e-05 9.227170685111479e-05 9.496187772253712e-05 9.565364570270672e-05 9.733133449784969e-05 8.503279011050265e-05 7.801492949405422e-05 8.437776028658027e-05 8.202269580866911e-05 8.951252431260418e-05 8.47723324961696e-05 -4.868104207105973e-05 4.7066793941595755e-05 6.346369181093525e-05 4.91746596226924e-05 5.591292620585469e-05 4.6439918399555434e-05 6.6634559675569e-05 5.891244128689311e-05 8.234818498335233e-05 6.863662697948683e-05 9.31662200803639e-05 2.875543711348743e-05 2.532208459898468e-05 0.0005034103059146947 0.0006601333543061684 0.0006207630408225914 0.0006832197308593622 4.7241572147555926e-05 -4.9897639085942106e-06 -3.04611427647779e-05 0.0006818724376080623 0.0005288827420643856 3.0499950141455352e-05 3.203227457050618e-06 0.000644184429333197 -7.539331547090168e-05 0.0010137249692271002 0.0009820113580615954 6.61667426767075e-05 6.07286868366328e-05 4.242053241846261e-05 5.0055403739876175e-05 9.87629024341699e-05 9.664939669558773e-05 9.299708946094827e-05 9.737496902900349e-05 9.081610511425356e-05 9.391906723425479e-05 9.531619226064543e-05 9.681827202675871e-05 9.587125452683055e-05 8.598516949808896e-05 9.325946182187279e-05 9.40234858862345e-05 9.489684232270594e-05 9.749292154070951e-05 8.452032231335387e-05 9.543089356302973e-05 6.24042108