<?xml version="1.0"?>
<VTKFile type="UnstructuredGrid"  version="0.1"  >
<UnstructuredGrid>
<Piece  NumberOfPoints="1289" NumberOfCells="2413">
<Points>
<DataArray  type="Float64"  NumberOfComponents="3"  format="ascii">0 0 0  0 0.41 0  2.2 0.41 0  2.2 0 0  0.1 0.1 0  0.1 0.3 0  0.8 0.3 0  0.8 0.1 0  0.25 0.2 0  0.248976 0.210065 0  0.245948 0.219718 0  0.241038 0.228563 0  0.234448 0.23624 0  0.226448 0.242432 0  0.217365 0.246888 0  0.207571 0.249423 0  0.197468 0.249936 0  0.187467 0.248404 0  0.17798 0.24489 0  0.169395 0.239539 0  0.162062 0.232569 0  0.156283 0.224265 0  0.152293 0.214968 0  0.150257 0.205058 0  0.150257 0.194942 0  0.152293 0.185032 0  0.156283 0.175735 0  0.162062 0.167431 0  0.169395 0.160461 0  0.17798 0.15511 0  0.187467 0.151596 0  0.197468 0.150064 0  0.207571 0.150577 0  0.217365 0.153112 0  0.226448 0.157568 0  0.234448 0.16376 0  0.241038 0.171437 0  0.245948 0.180282 0  0.248976 0.189935 0  1.1 0 0  1.1 0.41 0  0.1 0.2 0  0.45 0.1 0  0.45 0.3 0  0.55 0 0  0.275 0.1 0  0.275 0.3 0  0.275 0 0  0.55 0.41 0  0 0.205 0  0.825 0 0  0.825 0.41 0  0.275 0.41 0  0.1 0.15 0  0.1875 0.1 0  0.1 0.25 0  0.1875 0.3 0  0.132322 0.2 0  0.241426 0.253518 0  0.241426 0.146482 0  0.264574 0.17974 0  0.264574 0.22026 0  0.138434 0.187348 0  0.153372 0.150948 0  0.148413 0.164094 0  0.176495 0.136535 0  0.22768 0.143571 0  0.138434 0.212652 0  0.148413 0.235906 0  0.176495 0.263465 0  0.22768 0.256429 0  0.23125 0.3 0  0.24769 0.24094 0  0.23125 0.1 0  0.24769 0.15906 0  0.26253 0.193641 0  0.190482 0.137872 0  0.166753 0.146661 0  0.157737 0.244461 0  0.190482 0.262128 0  0.203107 0.261264 0  0.253635 0.22977 0  0.203107 0.138736 0  0.253635 0.17023 0  0.261028 0.206206 0  0.167707 0.251809 0  0.143629 0.224191 0  0.215302 0.2591 0  0.270465 0.245894 0  0.215302 0.1409 0  0.270465 0.154106 0  0.284052 0.202587 0  0.14375 0.3 0  0.209375 0.3 0  0.225966 0.278501 0  0.209375 0.1 0  0.225966 0.121499 0  0.211613 0.273759 0  0.211613 0.126241 0  0.143629 0.175809 0  0.1 0.175 0  0.133484 0.164832 0  0.144491 0.249539 0  0.1 0.225 0  0.133484 0.235168 0  0.3625 0.3 0  0.25691 0.253381 0  0.25691 0.146619 0  0.277205 0.188698 0  0.184724 0.275712 0  0.237372 0.268285 0  0.184724 0.124288 0  0.237372 0.131715 0  0.197578 0.273149 0  0.193656 0.286994 0  0.197578 0.126851 0  0.193656 0.113006 0  0.122953 0.187671 0  0.118362 0.153758 0  0.155372 0.258107 0  0.122953 0.212329 0  0.118362 0.246242 0  0.276394 0.27264 0  0.276394 0.12736 0  0.280965 0.170013 0  0.253125 0.3 0  0.14375 0.1 0  0.253125 0.1 0  0.269489 0.26014 0  0.269489 0.13986 0  0.303639 0.184297 0  0.165625 0.3 0  0.134742 0.273113 0  0.257831 0.274737 0  0.255279 0.128499 0  0.3625 0.1 0  0.165625 0.1 0  0.162031 0.132368 0  0.134955 0.126405 0  0.149334 0.125568 0  0.142936 0.139597 0  0.12695 0.140259 0  0.242514 0.285501 0  0.242514 0.114499 0  0.1 0.125 0  0.117483 0.12555 0  0.11154 0.139776 0  0.121875 0.1 0  0.109143 0.1125 0  0.126805 0.114 0  0.220313 0.29129 0  0.351562 0.287369 0  0.207222 0.2866 0  0.220312 0.10871 0  0.1375 0 0  0.20625 0 0  0.207222 0.1134 0  0.11722 0.17118 0  0.1 0.1625 0  0.0778409 0.16875 0  0.0862762 0.15625 0  0 0.15375 0  0 0.1025 0  0.11722 0.22882 0  0.1 0.2375 0  0 0.3075 0  0.0862762 0.23125 0  0.0598995 0.222547 0  0.0860223 0.2125 0  0.289584 0.181469 0  0.300267 0.16446 0  0.163832 0.269071 0  0.149597 0.273325 0  0.1 0.275 0  0.268498 0.285953 0  0.31875 0.3 0  0.294154 0.254672 0  0.296875 0.3 0  0.293558 0.271845 0  0.285095 0.286799 0  0.324298 0.264316 0  0.307866 0.263745 0  0.317093 0.234901 0  0.315485 0.281219 0  0.316547 0.250625 0  0.344693 0.243731 0  0.331592 0.251147 0  0.35129 0.270663 0  0.338689 0.263683 0  0.340625 0.3 0  0.249849 0.264383 0  0.265097 0.11422 0  0.284688 0.156136 0  0.242188 0.324017 0  0.0856613 0.2625 0  0.132812 0.0612217 0  0.264062 0.0612217 0  0.198437 0.07598340000000001 0  0.0860223 0.1375 0  0.0794526 0.191089 0  0.285228 0.140397 0  0.298655 0.148737 0  0.31875 0.1 0  0.327335 0.15374 0  0.296875 0.1 0  0.312289 0.155283 0  0.313348 0.135607 0  0.321802 0.173916 0  0.298433 0.134116 0  0.112124 0.2625 0  0.127526 0.259083 0  0.121875 0.3 0  0.0682687 0.241503 0  0.1 0.2875 0  0.117762 0.28125 0  0.107813 0.3 0  0.103906 0.313849 0  0.0778409 0.28125 0  0.1375 0.41 0  0.0862762 0.29375 0  0.08886860000000001 0.24375 0  0.307812 0.338778 0  0.307812 0.292227 0  0.33216 0.279164 0  0.387888 0.266414 0  0.264063 0.31948 0  0.110937 0.07598340000000001 0  0.242188 0.07598340000000001 0  0.319914 0.11839 0  0.340625 0.1 0  0.334448 0.133793 0  0.329687 0.108539 0  0.346259 0.118491 0  0.360334 0.173636 0  0.327539 0.205033 0  0.132812 0.288712 0  0.362436 0.278836 0  0.368105 0.259418 0  0.4125 0.41 0  0.329687 0.324017 0  0.329687 0.292306 0  0.285938 0.318952 0  0.417187 0.338778 0  0.324481 0.14148 0  0.351562 0.106771 0  0.40625 0.1 0  0.341028 0.168342 0  0.319221 0.190479 0  0.335292 0.184501 0  0.305563 0.20794 0  0.220313 0.31948 0  0.132812 0.332772 0  0.0865876 0.311259 0  0.0598995 0.302453 0  0.0906541 0.343255 0  0.353543 0.255837 0  0.36574 0.237633 0  0.405007 0.254279 0  0.275795 0.352123 0  0.4125 0 0  0.35493 0.137394 0  0.366563 0.120618 0  0.35917 0.205246 0  0.198438 0.318952 0  0.0626109 0.263892 0  0.40625 0.3 0  0.354809 0.155936 0  0.386512 0.146872 0  0.373101 0.159939 0  0.384375 0.1 0  0.343394 0.19929 0  0.350682 0.185683 0  0.368101 0.189748 0  0.344016 0.221511 0  0.391108 0.213329 0  0.376279 0.204783 0  0.398843 0.182768 0  0.375804 0.222746 0  0.390665 0.196958 0  0.394004 0.23518 0  0.359883 0.222828 0  0.419908 0.204359 0  0.404243 0.204783 0  0.412615 0.224526 0  0.20625 0.41 0  0.165625 0.325257 0  0.0347982 0.244954 0  0.379558 0.247154 0  0.34165 0.147603 0  0.372264 0.136992 0  0.388988 0.121989 0  0.373437 0.108554 0  0.351562 0.31948 0  0.391367 0.16527 0  0.399572 0.223324 0  0.452011 0.227371 0  0.40877 0.239392 0  0.431491 0.237337 0  0.421224 0.250459 0  0.449619 0.262098 0  0.418865 0.276779 0  0.437063 0.252274 0  0.415673 0.263227 0  0.430988 0.266772 0  0.402767 0.273419 0  0.452967 0.244883 0  0.428125 0.3 0  0.408502 0.286186 0  0.384375 0.3 0  0.392267 0.285807 0  0.465927 0.219339 0  0.43489 0.283846 0  0.376424 0.286289 0  0.625 0.3 0  0.473533 0.205186 0  0.461713 0.255517 0  0.5375 0.3 0  0.465725 0.235405 0  0.44631 0.201425 0  0.471875 0.3 0  0.494307 0.227729 0  0.459448 0.206736 0  0.462294 0.180792 0  0.478933 0.227536 0  0.486793 0.21381 0  0.486322 0.251373 0  0.50065 0.215318 0  0.54005 0.175389 0  0.474633 0.189893 0  0.512916 0.208697 0  0.49531 0.199967 0  0.475889 0.175275 0  0.625 0.1 0  0.459311 0.153933 0  0.513645 0.242704 0  0.392892 0.248539 0  0.374815 0.271913 0  0.365974 0.14871 0  0.395312 0.109184 0  0.417061 0.123981 0  0.483196 0.277003 0  0.381967 0.179632 0  0.429898 0.219374 0  0.433473 0.206165 0  0.43149 0.181038 0  0.444208 0.215487 0  0.472985 0.247309 0  0.49375 0.3 0  0.475579 0.262714 0  0.49916 0.274293 0  0.501175 0.184809 0  0.514164 0.225681 0  0.543648 0.214977 0  0.5341630000000001 0.23481 0  0.527396 0.216171 0  0.5375 0.1 0  0.534548 0.202315 0  0.561545 0.192513 0  0.5494289999999999 0.201221 0  0.570923 0.218346 0  0.412582 0.149833 0  0.489327 0.264745 0  0.502439 0.254775 0  0.462391 0.271166 0  0.496775 0.241732 0  0.5294410000000001 0.268606 0  0.482812 0.291099 0  0.46879 0.285038 0  0.452663 0.284065 0  0.51789 0.257882 0  0.53408 0.252026 0  0.560142 0.243543 0  0.545708 0.243474 0  0.547532 0.229019 0  0.55282 0.265323 0  0.398971 0.153424 0  0.400349 0.135684 0  0.410135 0.168145 0  0.428823 0.161323 0  0.415266 0.183779 0  0.329687 0.0810483 0  0.395312 0.0612217 0  0.373437 0.318952 0  0.439062 0.324017 0  0.561816 0.229354 0  0.585029 0.239287 0  0.431827 0.139854 0  0.446796 0.168929 0  0.351562 0.07598340000000001 0  0.395313 0.318944 0  0.54337 0.150762 0  0.460937 0.31948 0  0.418412 0.137529 0  0.428125 0.1 0  0.442783 0.152332 0  0.450742 0.134294 0  0.373437 0.0805201 0  0.384383 0.342558 0  0.482812 0.318952 0  0.429239 0.127457 0  0.444274 0.117405 0  0.426548 0.113815 0  0.49375 0.1 0  0.488954 0.113984 0  0.457973 0.121842 0  0.471621 0.137346 0  0.515625 0.325257 0  0.48125 0.41 0  0.417187 0.07598340000000001 0  0.496363 0.126778 0  0.479043 0.155715 0  0.439062 0.0805201 0  0.481795 0.126919 0  0.471875 0.1 0  0.489227 0.142159 0  0.515625 0.1 0  0.520062 0.147117 0  0.501244 0.161791 0  0.505431 0.112984 0  0.505344 0.14029 0  0.526563 0.119081 0  0.5181750000000001 0.131908 0  0.539868 0.136937 0  0.460937 0.108383 0  0.474242 0.114415 0  0.460937 0.0810483 0  0.487841 0.167168 0  0.526563 0.0612217 0  0.526563 0.106406 0  0.537619 0.112743 0  0.58125 0.1 0  0.559375 0.1 0  0.482812 0.08105569999999999 0  0.471883 0.0587655 0  0.570312 0.129396 0  0.548437 0.07598340000000001 0  0.504687 0.08105569999999999 0  0.49375 0.0470127 0  0.570312 0.112663 0  0.592798 0.12103 0  0.553986 0.12103 0  0.570312 0.0805201 0  0.48125 0 0  0.114787 0.2 0  0.160769 0.284765 0  0.175816 0.288361 0  0.162602 0.116048 0  0.154687 0.07598340000000001 0  0.176562 0.0805201 0  0.0598995 0.147547 0  0.307812 0.109924 0  0.291279 0.117157 0  0.278491 0.112989 0  0.285937 0.07598340000000001 0  0.307812 0.0805201 0  0.296928 0.196743 0  0.318141 0.218507 0  0.330208 0.227509 0  0.301397 0.225668 0  0.302706 0.241401 0  0.292574 0.21424 0  0.282762 0.230935 0  0.284351 0.244775 0  0.269553 0.23261 0  0.278572 0.217242 0  0.226924 0.342606 0  0.446928 0.185396 0  0.515625 0.3 0  0.504687 0.288879 0  0.515256 0.276534 0  0.529479 0.285328 0  0.58125 0.3 0  0.541969 0.272936 0  0.559375 0.3 0  0.556796 0.282529 0  0.543473 0.287206 0  0.581429 0.267774 0  0.566728 0.271171 0  0.570869 0.255585 0  0.577404 0.283865 0  0.603125 0.3 0  0.597531 0.28035 0  0.570312 0.338778 0  0.592188 0.292492 0  0.603513 0.256094 0  0.614063 0.286265 0  0.610329 0.27064 0  0.632708 0.251285 0  0.657223 0.261594 0  0.618789 0.257807 0  0.614188 0.22987 0  0.630935 0.265614 
[...]
<PointData  Scalars="p"> 
	<DataArray  type="Float64"  Name="p"  format="ascii">
0.0007010975296396461 0.0006749565237508464 -1.576028622857522e-07 -6.364011805486149e-08 0.000760280671438151 0.0007527228761644918 5.861683117517964e-05 5.7382268975553006e-05 -0.00026451479064448227 -0.0002785094390886453 -0.0003328647024706527 -0.0003361132480487736 -0.00032964458305508113 -0.0004054106945964116 -0.00034832678254654773 -0.00012968384152887256 -0.0002921572332336445 -0.0004743003748762636 -0.00031849646579526237 1.3238552909948196e-05 0.0005180114992541493 0.001160131620012552 0.001681108652691383 0.0020096479749982733 0.0020043165469518674 0.001663408236427718 0.0011448953707658717 0.0005046969521948427 -9.056511334026276e-05 -0.0003281410706226143 -0.000443534090495544 -0.00029914305935867393 -0.00012742685623591413 -0.00034718457392786883 -0.0004037624310450825 -0.0003242579731259583 -0.00033271120443869364 -0.0003319476179326315 -0.0002793193113747207 8.779433091952379e-05 8.416567693758874e-05 0.0014013192760224458 -0.0001512407420065385 -0.00015031111464698852 -7.429263698277275e-05 -7.963180482831322e-05 -8.659396089718333e-05 0.00017252197196221663 -5.72932447398275e-05 0.0009975684708272718 4.117470741081024e-05 4.1542531586627334e-05 0.0001955935355588244 0.0010705053228193845 0.00027011138965641034 0.0010702193378634814 0.0002808206795657515 0.0018199975070373236 -0.00022603738605393684 -0.0002241531228168468 -0.00028257673655266704 -0.00028506863763420344 0.0017701536451090584 0.0006038196750155063 0.0009989370108953988 1.3541803783089333e-06 -0.0003486311756581639 0.001783707062309839 0.0010077449239208347 1.8580703704394183e-05 -0.00034769389465112265 4.399835699099747e-05 -0.00020119245270951305 4.2691530328016726e-05 -0.00020227242056151083 -0.0002796269246886489 -0.000194198249119012 0.00012234943374002312 0.0005038299530694194 -0.00020311699163044782 -0.0001739474457655451 -0.0003123979637312026 -0.00017592737397631792 -0.0003132760040070878 -0.00027962731996675395 9.57409623089919e-05 0.0014403543319093483 -0.00016243000278315023 -0.00027213273055789317 -0.00016114166738664056 -0.0002705148882982296 -0.00027252327433798895 0.0005938466645551259 0.00012375394186040623 -0.00017839944758331325 0.0001528036288714072 -0.00016838843910578133 -0.0001146250143679894 -0.00011482031822518113 0.00142588333478507 0.0012799144227649871 0.0012791250889744137 0.0008217150437519502 0.0013001931273653841 0.0013020363650193204 -0.00016875685523892343 -0.00024086405143425475 -0.0002427178591426116 -0.00027656780064021696 8.704244787189812e-05 -0.0002079302394849859 7.938219861656796e-05 -0.00021361970996544282 -3.998716003409983e-05 0.00014021166841518776 -2.6562813625502405e-05 0.00014477919344256475 0.0016067274830152333 0.0011329449092399822 0.0005491048301435581 0.0016053354023942952 0.0011387690709466782 -0.00021737721798890334 -0.00022482551984808543 -0.00027411784365183767 -5.79925654324557e-05 0.0005929473229862696 -3.850805144787499e-05 -0.00023414114036316068 -0.00023755124329545162 -0.0002655256182090305 0.0004434331899298765 0.0007761672437697676 -0.00023121351395273773 -0.00021902016979229286 -0.00016914239580551543 0.0004647373647484261 0.000407104742212179 0.0007552458631828473 0.0006128052645680473 0.0007016669800691163 0.0009093099205695218 -0.00010323415758336676 -9.264367092881802e-05 0.0008792063400391682 0.0008453001678526761 0.0009692499614087759 0.0007035512894926049 0.0007909886459120956 0.0007420103445922323 -2.7085693742101407e-06 -0.00020366214201859105 2.6309439993749038e-05 -6.202939409933044e-07 0.0006153661022475489 0.00040541901646494796 4.6344248657012e-05 0.0013439424218341703 0.0011726542896117994 0.0011340554221956796 0.0010796872430703143 0.0009312906228293649 0.0007894219193156631 0.0013463971139730819 0.0011939935375365593 0.0007581304972362203 0.001154368382198902 0.0010894511604130068 0.0012500266489323582 -0.00027121344906776525 -0.0002666668821390314 0.0003546296051796921 0.0005890710409400247 0.0008787058306467661 -0.00017242830162701446 -0.0001452363066415931 -0.0002733795458663149 -0.00013977623158893294 -0.0002527351576092958 -0.0001898197527660745 -0.0002547468109068283 -0.00025034006216360027 -0.00026133903373535205 -0.00022084911872519896 -0.0002557315830781798 -0.0002504319437764468 -0.0002547609313909275 -0.00023731014977711637 -0.00024467107320810794 -0.00017802476137252304 -0.0002286943086900433 -0.00018969352745597517 -0.00026690428475963475 0.00014316189984467246 0.000971490083460701 0.0006104594607880541 0.00013638014087298663 0.00034522734708892366 0.0009519085706281486 0.0012120899229375926 -0.00026103976711054004 -0.0002632982432103154 -0.00014206435557984504 -0.0002567357531648854 -0.0001458418017006225 -0.0002622402678671012 -0.0002544721324544545 -0.000258733517070157 -0.00025694981551732746 0.0009571540627788345 0.0009148805603723173 0.0007002943624266072 0.0010402194147187793 0.000818929459399285 0.0008009261912675649 0.0007317419066862518 0.000697976434232853 0.0008482399290320599 0.0005873680354896535 0.0007949534565324047 0.0010982618168741082 1.9779755679588327e-05 -0.0001844645096577111 -0.000231592167199758 -0.00022490243594512394 4.7180391882406014e-05 0.0006843491166448955 0.00015045264101575716 -0.0002303338550768998 -0.00017483200024406007 -0.0002447252932150321 -0.0001957976695363544 -0.00022422307890716475 -0.00024347602103671877 -0.0002560859011405137 0.0006825864132318567 -0.00022652262810537787 -0.00023663105364302075 -5.3692134850366564e-05 -6.247367312214737e-05 -0.00020179910626572426 -1.7420914499202875e-05 -9.777666394658272e-05 -0.0002532466014674165 -0.00018904221888653826 -0.00016738062238836132 -0.00025188404202570335 -0.0002594078007174344 -0.00025326234966103063 -0.00026480199447601017 0.00018503895828450538 0.0006045995416947225 0.0007339086880635386 0.0007735758447121647 0.0006613099353942061 -0.00024553000537575354 -0.00024109612582658287 -0.00021821130789300772 0.00014558836691839198 -8.05961334344236e-05 -0.00024209199972990007 -0.00021933381824530454 -0.00024277420017335238 0.00031816244117679126 0.0009256672576123331 -0.0001665316512225609 -0.0002461728628713838 -0.00023034158158150584 -0.0002379703924499432 -0.00017242788007240507 -0.00024965324138985414 -0.0002469067203472991 -0.00023895513075049746 -0.0002498697937535865 -0.00022687149220585942 -0.00023460553217649944 -0.00022289843391631737 -0.00023564390131049613 -0.0002269372536559939 -0.00022638586955538265 -0.00024317689217100673 -0.0002083324428456267 -0.00021872583654176735 -0.00021434975365408328 0.0004165939696037501 0.00046995010496271843 0.0009526115052291485 -0.0002343803381089213 -0.0002504139567019971 -0.00023276898561071352 -0.00021225016720095497 -0.00019759694943061832 -0.00010411080305986628 -0.0002283317180398004 -0.00022251601989127927 -0.0001848224630186745 -0.00021756153979746209 -0.0002017381384469846 -0.0002084892666549347 -0.0001844363017258482 -0.00019701269235050304 -0.00019628960443723476 -0.00020853124826927525 -0.0001963719492989358 -0.0002107810738494346 -0.0001842338299790282 -0.00016057953398657384 -0.0001930192170822592 -0.00017754673931794264 -0.0001997113064816056 -0.00017194617776522937 -0.00018062066697687408 -0.00020796738272696856 -1.7604483892431397e-05 -0.00016436111662903138 -0.000174837903503361 -8.60985879234977e-05 -0.00017301779866476694 -0.00018836717410858827 -0.00013632398114303142 -0.0001449654574944804 -0.00017697716376061754 -0.00017570276216954625 -0.00016044591535406563 -0.00015169078673079534 -0.00015298456842532067 -0.00013759054371200472 -9.591018719172236e-05 -0.00016363478696923038 -0.00012431087853111464 -0.00014282099456514803 -0.0001636856842840197 -1.8841099000700563e-05 -0.0001792378374776007 -0.00012521743875504838 -0.00022640558321904985 -0.0002232205746988125 -0.0002397860807951917 -0.00018881150175094775 -0.00019974950625148275 -0.0001467524825146771 -0.0002326735864849076 -0.0002019414993737181 -0.00019845721517052373 -0.00020107591039672943 -0.00019052088215331037 -0.00016622205666388655 -0.0001186387997413688 -0.00016059130806087373 -0.00013428194469040103 -0.00013754835094211655 -0.00012401665067404328 -9.067919086013688e-05 -0.00010260610517464891 -0.00010888832703211575 -8.710183681466475e-05 -0.00010049907021884472 -7.045672642512833e-05 -8.386149187201017e-05 -6.047066352940382e-05 -0.00021451316243351846 -0.00014695222278926395 -0.00013608809617356589 -0.0001695008913950473 -0.00014300254905792612 -0.00010578277610595198 -0.00013660246148590474 -0.00015364419435683166 -0.00016679270671914414 -0.00011973790909719636 -0.00010260006852824317 -7.406451474587196e-05 -9.025378624935893e-05 -8.729660585680967e-05 -8.139852563270118e-05 -0.0002232942700260259 -0.00021866258959490976 -0.00021715555451971326 -0.00020429355953845347 -0.00021240091756674078 -9.55447990038876e-05 -9.191692732089288e-05 -0.0001252434549858721 -0.00011719305579560601 -7.138114097531008e-05 -4.6562430896332625e-05 -0.00019878302978781944 -0.00018990556510718466 -9.267222690571367e-05 -0.00012333423040293903 -9.287281156849549e-05 -0.00011825740065207349 -0.00020590160145519742 -0.00016248523590345421 -0.0001928291049975855 -0.00018189155413652513 -0.00012766164658857144 -7.04204567320008e-05 -0.00011451477402077871 -0.00019287940364796284 -0.000172550146362371 -0.00018603611297887503 -0.00012305402055533103 -0.00013751730433482932 -0.00016903245831942877 -0.0001644281485548633 -8.362461190187217e-05 -8.43415869088883e-05 -0.00012077868005716739 -0.0001362871483642855 -0.00016094944184232948 -0.0001320010313455269 -0.00015141729485624588 -0.00013676679520599323 -0.00014916700611967534 -0.00010441405786630653 -0.0001180972469422717 -0.0001389246473558289 -0.00012060397737778912 -0.000132534931813453 -0.0001052479102486339 -0.00011772329831506823 -9.517528881898648e-05 -0.00015503795813207697 -0.00014793383400326385 -0.0001275440362445965 -0.00015212036642430347 -7.991720956801293e-05 -9.944700616971795e-05 -9.128656828969798e-05 -5.052529303023202e-05 -6.982436724322489e-05 -0.00011140745090591982 -0.00010736941762240548 -6.278020112096068e-05 -6.774176034833426e-05 -0.00010293819309511348 -9.145668884432926e-05 -6.0452758798464095e-05 -4.21185772000703e-05 -7.89040139165386e-05 -6.070297673093479e-05 -0.00010258998826749833 0.0015707506032500926 0.00046708493578710746 0.00028900226825597983 0.0004297875338283648 0.0005438239163581091 0.0004340408136764136 0.0009761684519571457 -0.00019012316941180365 -0.00021498857193872055 -0.0001558354713311585 9.24442029955384e-06 -5.1023778867877355e-05 -0.0002680847047883736 -0.0002597853148879258 -0.00025539889698274074 -0.000266250291591574 -0.0002633063283453548 -0.00026976113359423505 -0.0002741051295886089 -0.0002689925301403227 -0.00027088781773158577 -0.0002779103155923349 0.0002729978262072308 -0.00018850846205120157 -0.00010425641300542707 -0.00012118807408473031 -0.00011640344986386781 -9.972435890775175e-05 -5.0772192104302776e-05 -9.11030649598784e-05 -6.721120982806222e-05 -7.467901137677021e-05 -8.52034557559517e-05 -5.1777833703127655e-05 -6.619675397833234e-05 -6.289126306585956e-05 -5.579649573193252e-05 -3.5013146629887734e-05 -3.633181811351483e-05 -5.485790122216908e-05 -4.294718044162879e-05 -2.9107419981762855e-05 -2.367626801493212e-05 -2.460830945049453e-05 -1.0834302603519015e-06 1.6400362638737356e-05 -1.4648378835649424e-05 -1.5800070044928663e-05 -5.242382126750515e-06 -1.112206419684335e-05 9.65332988909268e-06 9.692603292601607e-06 3.0414177831749256e-05 -9.019467634703077e-06 4.4334551771248225e-06 -4.729551379086986e-06 1.5122243570690942e-05 -7.242677460015125e-05 -3.990222244781122e-05 -3.824962855821898e-05 -4.512911357556926e-05 7.018009759898958e-06 4.189078951894609e-05 -1.0315351316280302e-05 -3.1365608500624856e-05 2.9028992426689467e-05 2.0625263647158125e-05 3.299444090347513e-05 2.1149041679499648e-05 3.692696874393618e-05 3.618798598167705e-05 2.512626312520339e-05 5.37050664991371e-05 1.2498374184767479e-05 2.0980475434614755e-05 4.682026150126182e-05 2.842988966009277e-05 8.936737929197383e-05 2.8723972304598508e-05 5.231656025411691e-05 4.4718486757124585e-05 6.862752808814359e-05 4.990216597908859e-05 5.966170572334051e-05 4.238309640570113e-05 4.6278012114261166e-05 4.06868910632484e-05 6.157400179248492e-05 5.8370576878024434e-05 5.235930314979911e-05 4.892797434130812e-05 5.3260091232163434e-05 7.061623678989728e-05 8.334019358830543e-05 6.259794109859086e-05 7.10503918215355e-05 6.345245778105352e-05 7.371162247786548e-05 7.274195560136948e-05 7.992216026414046e-05 5.49195044585343e-05 5.840619754974436e-05 6.510242806876165e-05 6.683537992117114e-05 7.42054655143057e-05 6.684915948522296e-05 6.724866616940881e-05 5.238197141144714e-05 3.4187595781201076e-05 3.0020257664770126e-05 -1.5443345365121665e-05 -3.2985574241022566e-06 2.4029616792709727e-05 6.405779408162507e-05 7.753603584605996e-05 7.687869079351276e-05 8.848219690820355e-05 4.285016430017601e-05 -5.235613140361765e-06 1.8538897334737424e-05 1.577468022703677e-05 7.368627151260926e-05 7.977194611838135e-05 8.446002900182944e-05 8.230864021184335e-05 4.003519037999278e-05 -1.575921875505078e-05 2.3254917275292318e-05 7.589158846966595e-05 8.55816768664964e-05 7.69267956890513e-05 8.435568621921363e-05 8.937752838386513e-05 9.320378713226595e-05 9.120684376226116e-05 9.404929578362679e-05 8.887096697742467e-05 8.577962337196899e-05 7.064093915427738e-05 6.640653689928084e-05 6.449156848849962e-05 5.562261394172069e-05 2.796115452769068e-05 8.234676429393393e-05 8.240904199889166e-05 4.514417067411699e-05 7.256562969225006e-05 4.836027806789091e-05 3.853016189813019e-05 5.640371853113732e-05 2.438356939552735e-05 3.482300765604407e-05 3.6639577566229875e-05 6.70561601076382e-05 6.040247003775614e-05 4.961870660344297e-05 5.433002868958384e-05 5.5186289558081346e-05 4.6029353445775485e-05 6.829257275109928e-06 4.598014007080161e-05 2.408276713022457e-05 4.4772263419218436e-05 3.7211324231681115e-05 2.652706488909195e-05 2.5002132533493293e-05 3.394133426052778e-05 -1.2535750432928396e-06 9.807949119528921e-06 1.3270308288617672e-05 3.811814715078639e-06 4.574113790691646e-06 -2.2927576811153677e-05 -7.905932942640643e-06 -1.559891466695821e-05 -1.4829582928452287e-05 -4.470469704223512e-05 -2.095921315966783e-05 -3.0699388015563194e-05 -4.767292815223446e-05 -3.0515792664953886e-05 -1.3588722126185008e-05 -4.580059152939707e-06 -4.58302584517527e-05 -1.579056112291814e-05 5.728701453789775e-06 -3.2945010383032965e-05 -3.4820957429312734e-05 -2.8375206135038613e-05 -6.237627472757024e-05 4.412415204026161e-06 1.5897375252201244e-05 3.517019550688607e-05 1.862247929959492e-05 3.719156524107141e-05 -5.6269927791966775e-06 -4.313662395068699e-05 -4.417757263324223e-05 -2.6201268443531024e-05 -6.197944562168385e-05 -7.803940090960792e-05 -7.898620361477621e-05 -7.78764649637787e-05 1.76991770496916e-05 1.2372419714247794e-05 2.7184485697542067e-05 -9.492252148524128e-06 5.19521417766926e-05 -8.583731765003189e-06 -3.0230722980361444e-05 -3.909227394544289e-05 -6.307873141514853e-05 -1.363323876786851e-05 3.7236618011580077e-05 -4.005796043376923e-05 4.5028406240530915e-06 5.2786156517628494e-05 4.144256927755154e-05 2.1534959993567485e-06 1.940643311962307e-05 4.559794943080885e-05 5.31114327583634e-05 5.160861339524999e-05 6.823964309158459e-05 1.9762174596233797e-05 7.415726283513852e-05 3.435727819738957e-05 7.460103564319304e-05 6.364136690257622e-05 8.445798090187562e-05 4.422342628838795e-05 5.6231808411453526e-05 6.55153725307572e-05 8.80516708907529e-05 7.877403097214865e-05 7.530789690333904e-05 8.140667052846917e-05 7.101300251960626e-05 8.43835275107662e-05 8.745686695844229e-05 8.10691799080939e-05 8.567765124938303e-05 7.551257485173414e-05 6.241601235558817e-05 6.367851823760507e-05 2.9479698884004715e-05 3.032396611780853e-05 -7.575058606460337e-05 -0.00011758423374646788 -0.00012358393001408484 -0.00012449909963503707 -0.00010531020239514189 -0.0001099540701023314 -9.800504288965317e-05 -8.373221447985014e-05 -8.917384246098848e-05 -0.00010368034247721875 0.00031899422685603175 0.0004943049463615845 -2.1143249917601232e-05 0.00018819411726305675 -2.970330066939532e-05 -3.541878306991496e-05 4.413818858765883e-05 6.686691515881271e-05 -4.2675259765941925e-05 1.73724181842513e-05 -6.365905001668198e-06 1.1075858058784514e-05 8.651050934166407e-05 1.1319890640297724e-06 1.4813663109282792e-05 -2.8183499149055174e-06 1.679734915532544e-05 2.7189067496819593e-05 -3.336780290730366e-05 -4.7008406714307755e-05 -6.22220855066591e-05 -7.487499185094524e-05 -5.617321667905623e-05 2.9633111029243964e-05 4.984905750689223e-05 -8.357321435994916e-05 0.0003040213684493107 -2.126740149281428e-05 -4.8475444150647846e-05 0.0002938628022269604 -3.825353547477125e-05 0.000824263632962027 0.0007030906324049527 -6.169956976573292e-05 5.751389966808461e-05 3.9064125406277475e-05 9.636883292032648e-05 -6.25508703703635e-05 -3.497189393406878e-05 2.9981942460520348e-05 -1.9034183935975762e-05 8.607018815933663e-05 2.900766329270919e-05 -8.017307208018445e-05 0.0004462666957372803 0.0006887514347075763 0.0006615730177645566 0.0006784811685815928 -3.0375906625997475e-05 1.3946942549496372e-05 0.0006626500226000504 0.0006618997107211396 0.00010333162596285705 0.0009084829182436632 -8.12675444805274e-05 -5.199802150650737e-05 -1.4724724380872761e-05 0.00011929931480026276 0.0005368244811949041 0.0007250730601952134 -5.637320344526134e-05 4.639280867664346e-06 0.00021444671692999904 0.0006114409160342249 -7.326488476410212e-07 0.0008343530786977134 0.000324801280290786 0.0002957373989226105 0.00021834589731978428 0.0007164157411370613 -1.1166462100854365e-05 -2.4445636504214797e-05 3.079703694241477e-05 1.600516705905743e-05 3.855607633720737e-06 -3.335240999159486e-05 6.73070165338253e-05 6.386139508031788e-05 8.326096039818393e-05 7.345710554623119e-05 7.041330553539308e-05 0.00022638877708324666 0.0006658851363936114 -1.8587045468465574e-05 -2.1326118911885173e-05 0.0006355102192552694 0.0008304607132268851 9.022211675358524e-05 7.851502489067153e-05 -6.684432172217048e-05 -6.766863797288022e-05 0.0010159507645521437 0.0007109987385083584 7.530464250278415e-05 0.0009171987855578379 7.396887085246258e-05 9.660414214916975e-05 0.0007378460838127946 7.054600604567289e-05 5.936430967983518e-05 8.947659824470752e-05 0.0006971375917742968 9.697616232361679e-05 0.0007022736145128472 0.000697055959106594 5.139475953322429e-05 8.651709753721982e-05 9.680168902458513e-05 9.334294432798328e-05 8.575362379367626e-05 9.794905792197808e-05 7.957725498538928e-05 9.633971667184248e-05 8.16561980556329e-05 9.599047828549454e-05 9.852489566436527e-05 9.193097921501992e-05 9.444628343933966e-05 9.524101852553223e-05 9.734718851758345e-05 8.455318562904594e-05 7.796840790200708e-05 8.403580160252992e-05 8.173105578819838e-05 8.900814972582622e-05 8.433234983251767e-05 -4.8612396483900244e-05 4.680724725054104e-05 6.300951819163695e-05 4.8850259766577e-05 5.551557946645198e-05 4.61634896274712e-05 6.621733577770502e-05 5.84833363089605e-05 8.213530207799832e-05 6.827366435155341e-05 9.36141701527438e-05 2.871608547587165e-05 2.5355473639349787e-05 0.0005033865221601647 0.0006601485891298604 0.0006207798910417365 0.0006832344573004052 4.721038228326936e-05 -5.021230813726345e-06 -3.031964286322184e-05 0.0006818545152193744 0.0005289034826445727 3.055886282235253e-05 3.013625726455974e-06 0.0006441660988200002 -7.541196196210542e-05 0.001013721338515545 0.0009820136401911073 6.656674368951503e-05 6.121930928675978e-05 4.264090966180265e-05 5.041401250304729e-05 9.881989965971579e-05 9.615205039654261e-05 9.272282343362569e-05 9.757526959544379e-05 9.135745882928759e-05 9.440690529098458e-05 9.585042218844676e-05 9.722797315170811e-05 9.610445903833641e-05 8.604197157591053e-05 9.363064381149729e-05 9.458907946621558e-05 9.533766717844706e-05 9.710135254498259e-05 8.520998746726038e-05 9.563441364539613e-05 6.250