<?xml version="1.0"?>
<VTKFile type="UnstructuredGrid"  version="0.1"  >
<UnstructuredGrid>
<Piece  NumberOfPoints="1289" NumberOfCells="2413">
<Points>
<DataArray  type="Float64"  NumberOfComponents="3"  format="ascii">0 0 0  0 0.41 0  2.2 0.41 0  2.2 0 0  0.1 0.1 0  0.1 0.3 0  0.8 0.3 0  0.8 0.1 0  0.25 0.2 0  0.248976 0.210065 0  0.245948 0.219718 0  0.241038 0.228563 0  0.234448 0.23624 0  0.226448 0.242432 0  0.217365 0.246888 0  0.207571 0.249423 0  0.197468 0.249936 0  0.187467 0.248404 0  0.17798 0.24489 0  0.169395 0.239539 0  0.162062 0.232569 0  0.156283 0.224265 0  0.152293 0.214968 0  0.150257 0.205058 0  0.150257 0.194942 0  0.152293 0.185032 0  0.156283 0.175735 0  0.162062 0.167431 0  0.169395 0.160461 0  0.17798 0.15511 0  0.187467 0.151596 0  0.197468 0.150064 0  0.207571 0.150577 0  0.217365 0.153112 0  0.226448 0.157568 0  0.234448 0.16376 0  0.241038 0.171437 0  0.245948 0.180282 0  0.248976 0.189935 0  1.1 0 0  1.1 0.41 0  0.1 0.2 0  0.45 0.1 0  0.45 0.3 0  0.55 0 0  0.275 0.1 0  0.275 0.3 0  0.275 0 0  0.55 0.41 0  0 0.205 0  0.825 0 0  0.825 0.41 0  0.275 0.41 0  0.1 0.15 0  0.1875 0.1 0  0.1 0.25 0  0.1875 0.3 0  0.132322 0.2 0  0.241426 0.253518 0  0.241426 0.146482 0  0.264574 0.17974 0  0.264574 0.22026 0  0.138434 0.187348 0  0.153372 0.150948 0  0.148413 0.164094 0  0.176495 0.136535 0  0.22768 0.143571 0  0.138434 0.212652 0  0.148413 0.235906 0  0.176495 0.263465 0  0.22768 0.256429 0  0.23125 0.3 0  0.24769 0.24094 0  0.23125 0.1 0  0.24769 0.15906 0  0.26253 0.193641 0  0.190482 0.137872 0  0.166753 0.146661 0  0.157737 0.244461 0  0.190482 0.262128 0  0.203107 0.261264 0  0.253635 0.22977 0  0.203107 0.138736 0  0.253635 0.17023 0  0.261028 0.206206 0  0.167707 0.251809 0  0.143629 0.224191 0  0.215302 0.2591 0  0.270465 0.245894 0  0.215302 0.1409 0  0.270465 0.154106 0  0.284052 0.202587 0  0.14375 0.3 0  0.209375 0.3 0  0.225966 0.278501 0  0.209375 0.1 0  0.225966 0.121499 0  0.211613 0.273759 0  0.211613 0.126241 0  0.143629 0.175809 0  0.1 0.175 0  0.133484 0.164832 0  0.144491 0.249539 0  0.1 0.225 0  0.133484 0.235168 0  0.3625 0.3 0  0.25691 0.253381 0  0.25691 0.146619 0  0.277205 0.188698 0  0.184724 0.275712 0  0.237372 0.268285 0  0.184724 0.124288 0  0.237372 0.131715 0  0.197578 0.273149 0  0.193656 0.286994 0  0.197578 0.126851 0  0.193656 0.113006 0  0.122953 0.187671 0  0.118362 0.153758 0  0.155372 0.258107 0  0.122953 0.212329 0  0.118362 0.246242 0  0.276394 0.27264 0  0.276394 0.12736 0  0.280965 0.170013 0  0.253125 0.3 0  0.14375 0.1 0  0.253125 0.1 0  0.269489 0.26014 0  0.269489 0.13986 0  0.303639 0.184297 0  0.165625 0.3 0  0.134742 0.273113 0  0.257831 0.274737 0  0.255279 0.128499 0  0.3625 0.1 0  0.165625 0.1 0  0.162031 0.132368 0  0.134955 0.126405 0  0.149334 0.125568 0  0.142936 0.139597 0  0.12695 0.140259 0  0.242514 0.285501 0  0.242514 0.114499 0  0.1 0.125 0  0.117483 0.12555 0  0.11154 0.139776 0  0.121875 0.1 0  0.109143 0.1125 0  0.126805 0.114 0  0.220313 0.29129 0  0.351562 0.287369 0  0.207222 0.2866 0  0.220312 0.10871 0  0.1375 0 0  0.20625 0 0  0.207222 0.1134 0  0.11722 0.17118 0  0.1 0.1625 0  0.0778409 0.16875 0  0.0862762 0.15625 0  0 0.15375 0  0 0.1025 0  0.11722 0.22882 0  0.1 0.2375 0  0 0.3075 0  0.0862762 0.23125 0  0.0598995 0.222547 0  0.0860223 0.2125 0  0.289584 0.181469 0  0.300267 0.16446 0  0.163832 0.269071 0  0.149597 0.273325 0  0.1 0.275 0  0.268498 0.285953 0  0.31875 0.3 0  0.294154 0.254672 0  0.296875 0.3 0  0.293558 0.271845 0  0.285095 0.286799 0  0.324298 0.264316 0  0.307866 0.263745 0  0.317093 0.234901 0  0.315485 0.281219 0  0.316547 0.250625 0  0.344693 0.243731 0  0.331592 0.251147 0  0.35129 0.270663 0  0.338689 0.263683 0  0.340625 0.3 0  0.249849 0.264383 0  0.265097 0.11422 0  0.284688 0.156136 0  0.242188 0.324017 0  0.0856613 0.2625 0  0.132812 0.0612217 0  0.264062 0.0612217 0  0.198437 0.07598340000000001 0  0.0860223 0.1375 0  0.0794526 0.191089 0  0.285228 0.140397 0  0.298655 0.148737 0  0.31875 0.1 0  0.327335 0.15374 0  0.296875 0.1 0  0.312289 0.155283 0  0.313348 0.135607 0  0.321802 0.173916 0  0.298433 0.134116 0  0.112124 0.2625 0  0.127526 0.259083 0  0.121875 0.3 0  0.0682687 0.241503 0  0.1 0.2875 0  0.117762 0.28125 0  0.107813 0.3 0  0.103906 0.313849 0  0.0778409 0.28125 0  0.1375 0.41 0  0.0862762 0.29375 0  0.08886860000000001 0.24375 0  0.307812 0.338778 0  0.307812 0.292227 0  0.33216 0.279164 0  0.387888 0.266414 0  0.264063 0.31948 0  0.110937 0.07598340000000001 0  0.242188 0.07598340000000001 0  0.319914 0.11839 0  0.340625 0.1 0  0.334448 0.133793 0  0.329687 0.108539 0  0.346259 0.118491 0  0.360334 0.173636 0  0.327539 0.205033 0  0.132812 0.288712 0  0.362436 0.278836 0  0.368105 0.259418 0  0.4125 0.41 0  0.329687 0.324017 0  0.329687 0.292306 0  0.285938 0.318952 0  0.417187 0.338778 0  0.324481 0.14148 0  0.351562 0.106771 0  0.40625 0.1 0  0.341028 0.168342 0  0.319221 0.190479 0  0.335292 0.184501 0  0.305563 0.20794 0  0.220313 0.31948 0  0.132812 0.332772 0  0.0865876 0.311259 0  0.0598995 0.302453 0  0.0906541 0.343255 0  0.353543 0.255837 0  0.36574 0.237633 0  0.405007 0.254279 0  0.275795 0.352123 0  0.4125 0 0  0.35493 0.137394 0  0.366563 0.120618 0  0.35917 0.205246 0  0.198438 0.318952 0  0.0626109 0.263892 0  0.40625 0.3 0  0.354809 0.155936 0  0.386512 0.146872 0  0.373101 0.159939 0  0.384375 0.1 0  0.343394 0.19929 0  0.350682 0.185683 0  0.368101 0.189748 0  0.344016 0.221511 0  0.391108 0.213329 0  0.376279 0.204783 0  0.398843 0.182768 0  0.375804 0.222746 0  0.390665 0.196958 0  0.394004 0.23518 0  0.359883 0.222828 0  0.419908 0.204359 0  0.404243 0.204783 0  0.412615 0.224526 0  0.20625 0.41 0  0.165625 0.325257 0  0.0347982 0.244954 0  0.379558 0.247154 0  0.34165 0.147603 0  0.372264 0.136992 0  0.388988 0.121989 0  0.373437 0.108554 0  0.351562 0.31948 0  0.391367 0.16527 0  0.399572 0.223324 0  0.452011 0.227371 0  0.40877 0.239392 0  0.431491 0.237337 0  0.421224 0.250459 0  0.449619 0.262098 0  0.418865 0.276779 0  0.437063 0.252274 0  0.415673 0.263227 0  0.430988 0.266772 0  0.402767 0.273419 0  0.452967 0.244883 0  0.428125 0.3 0  0.408502 0.286186 0  0.384375 0.3 0  0.392267 0.285807 0  0.465927 0.219339 0  0.43489 0.283846 0  0.376424 0.286289 0  0.625 0.3 0  0.473533 0.205186 0  0.461713 0.255517 0  0.5375 0.3 0  0.465725 0.235405 0  0.44631 0.201425 0  0.471875 0.3 0  0.494307 0.227729 0  0.459448 0.206736 0  0.462294 0.180792 0  0.478933 0.227536 0  0.486793 0.21381 0  0.486322 0.251373 0  0.50065 0.215318 0  0.54005 0.175389 0  0.474633 0.189893 0  0.512916 0.208697 0  0.49531 0.199967 0  0.475889 0.175275 0  0.625 0.1 0  0.459311 0.153933 0  0.513645 0.242704 0  0.392892 0.248539 0  0.374815 0.271913 0  0.365974 0.14871 0  0.395312 0.109184 0  0.417061 0.123981 0  0.483196 0.277003 0  0.381967 0.179632 0  0.429898 0.219374 0  0.433473 0.206165 0  0.43149 0.181038 0  0.444208 0.215487 0  0.472985 0.247309 0  0.49375 0.3 0  0.475579 0.262714 0  0.49916 0.274293 0  0.501175 0.184809 0  0.514164 0.225681 0  0.543648 0.214977 0  0.5341630000000001 0.23481 0  0.527396 0.216171 0  0.5375 0.1 0  0.534548 0.202315 0  0.561545 0.192513 0  0.5494289999999999 0.201221 0  0.570923 0.218346 0  0.412582 0.149833 0  0.489327 0.264745 0  0.502439 0.254775 0  0.462391 0.271166 0  0.496775 0.241732 0  0.5294410000000001 0.268606 0  0.482812 0.291099 0  0.46879 0.285038 0  0.452663 0.284065 0  0.51789 0.257882 0  0.53408 0.252026 0  0.560142 0.243543 0  0.545708 0.243474 0  0.547532 0.229019 0  0.55282 0.265323 0  0.398971 0.153424 0  0.400349 0.135684 0  0.410135 0.168145 0  0.428823 0.161323 0  0.415266 0.183779 0  0.329687 0.0810483 0  0.395312 0.0612217 0  0.373437 0.318952 0  0.439062 0.324017 0  0.561816 0.229354 0  0.585029 0.239287 0  0.431827 0.139854 0  0.446796 0.168929 0  0.351562 0.07598340000000001 0  0.395313 0.318944 0  0.54337 0.150762 0  0.460937 0.31948 0  0.418412 0.137529 0  0.428125 0.1 0  0.442783 0.152332 0  0.450742 0.134294 0  0.373437 0.0805201 0  0.384383 0.342558 0  0.482812 0.318952 0  0.429239 0.127457 0  0.444274 0.117405 0  0.426548 0.113815 0  0.49375 0.1 0  0.488954 0.113984 0  0.457973 0.121842 0  0.471621 0.137346 0  0.515625 0.325257 0  0.48125 0.41 0  0.417187 0.07598340000000001 0  0.496363 0.126778 0  0.479043 0.155715 0  0.439062 0.0805201 0  0.481795 0.126919 0  0.471875 0.1 0  0.489227 0.142159 0  0.515625 0.1 0  0.520062 0.147117 0  0.501244 0.161791 0  0.505431 0.112984 0  0.505344 0.14029 0  0.526563 0.119081 0  0.5181750000000001 0.131908 0  0.539868 0.136937 0  0.460937 0.108383 0  0.474242 0.114415 0  0.460937 0.0810483 0  0.487841 0.167168 0  0.526563 0.0612217 0  0.526563 0.106406 0  0.537619 0.112743 0  0.58125 0.1 0  0.559375 0.1 0  0.482812 0.08105569999999999 0  0.471883 0.0587655 0  0.570312 0.129396 0  0.548437 0.07598340000000001 0  0.504687 0.08105569999999999 0  0.49375 0.0470127 0  0.570312 0.112663 0  0.592798 0.12103 0  0.553986 0.12103 0  0.570312 0.0805201 0  0.48125 0 0  0.114787 0.2 0  0.160769 0.284765 0  0.175816 0.288361 0  0.162602 0.116048 0  0.154687 0.07598340000000001 0  0.176562 0.0805201 0  0.0598995 0.147547 0  0.307812 0.109924 0  0.291279 0.117157 0  0.278491 0.112989 0  0.285937 0.07598340000000001 0  0.307812 0.0805201 0  0.296928 0.196743 0  0.318141 0.218507 0  0.330208 0.227509 0  0.301397 0.225668 0  0.302706 0.241401 0  0.292574 0.21424 0  0.282762 0.230935 0  0.284351 0.244775 0  0.269553 0.23261 0  0.278572 0.217242 0  0.226924 0.342606 0  0.446928 0.185396 0  0.515625 0.3 0  0.504687 0.288879 0  0.515256 0.276534 0  0.529479 0.285328 0  0.58125 0.3 0  0.541969 0.272936 0  0.559375 0.3 0  0.556796 0.282529 0  0.543473 0.287206 0  0.581429 0.267774 0  0.566728 0.271171 0  0.570869 0.255585 0  0.577404 0.283865 0  0.603125 0.3 0  0.597531 0.28035 0  0.570312 0.338778 0  0.592188 0.292492 0  0.603513 0.256094 0  0.614063 0.286265 0  0.610329 0.27064 0  0.632708 0.251285 0  0.657223 0.261594 0  0.618789 0.257807 0  0.614188 0.22987 0  0.630935 0.265614 
[...]
<PointData  Scalars="p"> 
	<DataArray  type="Float64"  Name="p"  format="ascii">
0.0007011184698830584 0.0006749354496021227 -1.4501424792300661e-07 -7.376354685505396e-08 0.0007603008399849359 0.0007527022341222492 5.8404152657953016e-05 5.754368906086403e-05 -0.0002645148965000239 -0.00027851481133925576 -0.0003328702372348915 -0.0003361109097021933 -0.00032978494253622204 -0.0004060429245005878 -0.0003489284968415294 -0.00012963828123637838 -0.0002921712481599646 -0.0004743366030324203 -0.0003185438237407608 1.318681502160791e-05 0.0005179597188472771 0.001160090713653498 0.0016810809652532776 0.0020096392626540852 0.002004326472952522 0.001663436442236259 0.001144935872617924 0.0005047469136782091 -9.051173360679912e-05 -0.00032809799318621357 -0.0004435038436154618 -0.000299135627088065 -0.00012748489842059985 -0.00034646791233869227 -0.00040303747517565395 -0.00032409819131491415 -0.00033270104577270965 -0.0003319389304017102 -0.0002793135326436314 8.719038184284642e-05 8.478111752817647e-05 0.001401319501868859 -0.00015114899432748234 -0.00015038894308795872 -7.432124167785361e-05 -7.961003516152662e-05 -8.661823015671164e-05 0.00017256673868058583 -5.724230641547752e-05 0.0009975676933495277 4.1320646337725905e-05 4.137781203909575e-05 0.00019555053519016888 0.001070521247438087 0.0002701514627499341 0.0010702036048762203 0.0002807822964780838 0.0018199977241137506 -0.00022601144212240314 -0.00022419111802458267 -0.00028257861936120644 -0.00028506948915687775 0.00177016826942733 0.0006038570877369745 0.0009989730483210178 1.3904830219795834e-06 -0.00034826410248566686 0.0017836930203953898 0.001007708662601727 1.8543033983312138e-05 -0.00034800277922667427 4.3956175111812506e-05 -0.00020118196612681915 4.2734379140303836e-05 -0.00020229456393823638 -0.0002796263386085665 -0.0001941688786079586 0.00012239119976552586 0.0005037865844935401 -0.00020315029640858933 -0.00017398667764057012 -0.00031240125931009224 -0.00017588977853864223 -0.00031326824992842513 -0.0002796288685828951 9.569714455670266e-05 0.0014403254624465425 -0.00016252089424476763 -0.00027213690004637025 -0.00016104224302261212 -0.00027051759002822345 -0.0002725265487712707 0.0005938206948873627 0.00012370174968620514 -0.00017854506469224622 0.0001528577034039707 -0.00016822208891329702 -0.00011470334520523006 -0.00011473583099531997 0.0014259123261613027 0.0012799240305510948 0.0012791488298016956 0.000821683557133684 0.0013001835748578045 0.0013020126808305696 -0.00016882104108067653 -0.00024087608157949953 -0.0002427156970303477 -0.0002765686622838838 8.700200024445503e-05 -0.00020797189283997488 7.94228825079853e-05 -0.00021357486523925878 -4.004093893488915e-05 0.00014016520590087747 -2.6507358272557267e-05 0.00014482747485185406 0.0016067368121548192 0.0011329639776767523 0.0005490699245383077 0.001605326546625337 0.001138749877997606 -0.00021739544693903556 -0.00022482791471451966 -0.00027411737394446387 -5.804428648058383e-05 0.0005929733421514402 -3.845910802914186e-05 -0.00023414634927706465 -0.00023755619912042443 -0.00026551964325587004 0.0004434022510152341 0.0007761423001244303 -0.00023125147963835144 -0.0002189817663778962 -0.00016907184698829238 0.0004647684147032558 0.0004071380088162642 0.0007552708783822692 0.0006128337122231304 0.000701697374060938 0.0009093334501820243 -0.00010324859020820292 -9.263876550481484e-05 0.0008792252382490387 0.0008453217399959096 0.0009692694990767743 0.0007035740205791689 0.0007910095820418387 0.0007420336166579843 -2.790233975414092e-06 -0.00020372710401831255 2.6247710663304206e-05 -5.296991281521972e-07 0.0006153890378785146 0.00040545340180874124 4.6409433541070186e-05 0.001343956526675756 0.0011726674987747518 0.0011340645881214454 0.0010796997536285486 0.0009313013520807096 0.0007894402040432246 0.0013463831721286762 0.0011939807987066853 0.0007581118193499454 0.0011543589400325866 0.0010894456650622126 0.001250023104142296 -0.0002712112341089838 -0.00026665372504526194 0.00035459459563171177 0.0005890411661020752 0.0008786868803480057 -0.000172458912385861 -0.00014527930235424985 -0.00027341192412553737 -0.0001398200924969873 -0.00025277229640972626 -0.0001898542523745153 -0.0002547982263467611 -0.0002503794411402708 -0.0002613717541776957 -0.0002208971931184414 -0.0002557726973941213 -0.00025048330424439657 -0.00025481051517022344 -0.00023737794137725362 -0.0002447296036301226 -0.0001780822768545969 -0.00022873052497412265 -0.000189643965333767 -0.00026689774305399636 0.00014311904005462648 0.0009714744950000373 0.0006104826565570667 0.00013641869293649756 0.00034526349341018023 0.0009519246832062676 0.0012120925156477093 -0.00026101937186368186 -0.00026328271464074555 -0.00014202586883046653 -0.00025669832061012593 -0.0001457986786651817 -0.0002622138321637609 -0.00025443888889005293 -0.00025871250331046814 -0.00025692035012704135 0.0009571341850582323 0.0009148567906010457 0.0007002718095496241 0.001040208853156247 0.0008189099418572774 0.0008009042869157148 0.0007317205115426402 0.0006979551578124748 0.00084822223951115 0.0005873445744281397 0.0007949344463139348 0.00109824916714146 1.973729006693049e-05 -0.0001845068539009328 -0.00023164843476935047 -0.00022499332696693987 4.7144733396654246e-05 0.000684370379555129 0.0001504974762194252 -0.00023028595931559094 -0.00017477325799400615 -0.00024467495169493424 -0.00019574720246753007 -0.0002241580011021569 -0.0002434314950425029 -0.00025609259329130153 0.0006825615168456811 -0.0002265971272932974 -0.0002367054989696109 -5.373690513178865e-05 -6.252271108598234e-05 -0.00020185314928271905 -1.746498079291246e-05 -9.783281875347205e-05 -0.00025320674943269544 -0.0001889765529908717 -0.00016728587850680128 -0.00025184675866178646 -0.00025940213324157255 -0.00025324517621680176 -0.0002648108858382725 0.00018499759967894328 0.0006045763261628136 0.0007338887073554002 0.0007735570386909629 0.0006612888141015629 -0.00024559362720203033 -0.00024115110220275995 -0.00021831030113419412 0.00014554644642468867 -8.054170301454315e-05 -0.00024202088302508368 -0.00021925046558180105 -0.00024277916366244323 0.00031812654849475174 0.0009256530710187837 -0.00016661302679367348 -0.00024611362403915516 -0.00023024109338347823 -0.00023789734961582898 -0.00017234213198792994 -0.0002496516747808917 -0.0002468840309836305 -0.00023893140913737614 -0.00024989738527656316 -0.00022689426192692207 -0.00023460860400117826 -0.00022284334342854083 -0.00023568078757994464 -0.00022692029138694387 -0.00022645309215645567 -0.00024320974918403527 -0.0002083340269142401 -0.0002187281008320195 -0.00021440769531404076 0.0004165615266703812 0.0004699215605103646 0.0009526018702190806 -0.0002344543445448931 -0.0002503610031877739 -0.00023267991614625718 -0.00021214352400536276 -0.00019751190766435122 -0.00010416387546190888 -0.0002282474190488731 -0.00022256392701490877 -0.00018490748660043857 -0.00021764633019083626 -0.00020183597448100466 -0.000208597517156983 -0.00018455998851010642 -0.0001971199229898809 -0.0001964092755980832 -0.0002086414862899018 -0.00019649021511569556 -0.00021088206039103827 -0.0001843525893315488 -0.00016066234081808258 -0.0001931140044638096 -0.00017762152827178608 -0.00019980008970727408 -0.0001720071212570265 -0.00018072642623680456 -0.00020804671088663448 -1.7267635432222166e-05 -0.00016436931398533799 -0.00017496014444604385 -8.60036020684704e-05 -0.000173121789143322 -0.00018835732092419932 -0.00013637867081386392 -0.00014503801169446961 -0.00017699000618205484 -0.0001756120444701097 -0.00016053235735318617 -0.00015172998879503492 -0.0001530882981922313 -0.0001376302451536684 -9.59288690719301e-05 -0.00016358123252196432 -0.00012432440641872003 -0.0001428095627002169 -0.00016358247096122803 -1.915983394172537e-05 -0.00017908950212370064 -0.00012526498643774563 -0.00022648969655859508 -0.0002233021299503743 -0.000239710516275049 -0.00018871108928510325 -0.00019962072954058123 -0.00014682784596181745 -0.00023262299101914805 -0.0002019931278257058 -0.00019846482321556703 -0.0002009952680124541 -0.0001905649559860848 -0.00016633763046662795 -0.00011865866419966435 -0.00016069908070762083 -0.00013432533506575867 -0.00013749206331212886 -0.00012406048504763728 -9.066577349415409e-05 -0.00010259970470414904 -0.00010890215257366969 -8.71899512248773e-05 -0.00010049918618182155 -7.048600825694294e-05 -8.386505075340508e-05 -6.038832476224139e-05 -0.00021438684172801122 -0.0001470343561486348 -0.00013615370903611684 -0.00016961229993905512 -0.00014308967685008466 -0.00010573334497826454 -0.00013665472739154876 -0.0001537266267925566 -0.0001668908633439261 -0.00011975403030290594 -0.00010256354528988182 -7.392803295073864e-05 -9.018351535506904e-05 -8.725095776913503e-05 -8.124401828047933e-05 -0.00022318603671032835 -0.00021854104048345501 -0.0002170580388064462 -0.00020416641963461925 -0.00021233867972981523 -9.549108747190344e-05 -9.185355741154633e-05 -0.00012530577797736936 -0.00011724856918914476 -7.128587352694702e-05 -4.632219025557936e-05 -0.00019863629651109947 -0.00018978508549103486 -9.261620535341115e-05 -0.00012339913956608794 -9.295332320011737e-05 -0.0001183082369668896 -0.00020576631345377465 -0.00016238374636448301 -0.00019268287892786274 -0.0001817461689685522 -0.00012759289799805964 -7.047551105267202e-05 -0.00011454258975073726 -0.00019274135537345678 -0.0001724268181118682 -0.00018591357652645432 -0.00012302240616353087 -0.0001374575946774264 -0.00016890928531273998 -0.00016429608668184058 -8.359820619911022e-05 -8.436991502350279e-05 -0.00012070916243794597 -0.0001362254938410099 -0.00016081926425405907 -0.00013192486827391198 -0.00015132049684466866 -0.00013669673852946543 -0.0001490611309333093 -0.00010443950694180161 -0.00011808217741899803 -0.00013883467423571092 -0.00012059146835539265 -0.00013247609245723013 -0.00010530082254517796 -0.00011772674586239282 -9.526723930905401e-05 -0.00015494024002559424 -0.00014784503555039164 -0.0001274789917595431 -0.00015201330881116658 -7.993248343316276e-05 -9.95012664452906e-05 -9.138799833991914e-05 -5.075049390990076e-05 -6.998422912537251e-05 -0.00011137078205971569 -0.00010732283948219864 -6.302819422494409e-05 -6.781823973177063e-05 -0.00010292897103168097 -9.143192758479305e-05 -6.067801545725067e-05 -4.2448170249248724e-05 -7.907764470666193e-05 -6.084024888500471e-05 -0.00010255408982155936 0.0015707508915653566 0.0004670536365429676 0.00028896617391887224 0.0004298200410074341 0.0005438503512283824 0.0004340723661215503 0.000976181050128257 -0.00019009366952095396 -0.0002149518144576435 -0.0001558308617574875 9.289743948249213e-06 -5.0986123407971894e-05 -0.0002680864668133306 -0.00025980479384949583 -0.00025542972277980486 -0.0002662699384770636 -0.0002633353939038586 -0.0002697705641951593 -0.0002741154930670939 -0.00026901203962146004 -0.00027088901208103714 -0.0002779150797332945 0.0002729614135101681 -0.00018843763809090519 -0.00010422110838654575 -0.0001211956185987538 -0.00011639187078327755 -9.965189601277507e-05 -5.053780305611483e-05 -9.098985364947133e-05 -6.703597910032939e-05 -7.449690950758331e-05 -8.50772199426128e-05 -5.148102851325338e-05 -6.597157807190451e-05 -6.266462788041809e-05 -5.553307087574685e-05 -3.471477330710129e-05 -3.5982005812743836e-05 -5.475236498336532e-05 -4.265126319242255e-05 -2.8725216257840456e-05 -2.3304720921562365e-05 -2.4200740286984208e-05 -6.17614701149201e-07 1.6876577462583863e-05 -1.421256688930405e-05 -1.5503422943123965e-05 -4.780966587346904e-06 -1.0718921748086293e-05 9.985710796904249e-06 1.002474025728513e-05 3.063508822784254e-05 -8.603990591451501e-06 4.886881875862407e-06 -4.3834979359564114e-06 1.5527673087672945e-05 -7.233785874363463e-05 -3.9710245127429996e-05 -3.7895908415802544e-05 -4.482498651308226e-05 7.387456143685623e-06 4.2260310469731025e-05 -1.0077959594158576e-05 -3.112750655200196e-05 2.9462180821604624e-05 2.0902242824771847e-05 3.339089675794687e-05 2.149389458282277e-05 3.721419056478238e-05 3.663021812616519e-05 2.5587932897568038e-05 5.399022098651393e-05 1.2981312809897734e-05 2.1388181219108807e-05 4.719209464391685e-05 2.8471191813356518e-05 8.93446071872706e-05 2.8994867056849242e-05 5.263101963507452e-05 4.484631555946801e-05 6.871824164024731e-05 5.0134596061017355e-05 5.98493882535494e-05 4.2567943149265346e-05 4.6299980908156294e-05 4.079701312662099e-05 6.181713563476344e-05 5.839422963332766e-05 5.2488038440687085e-05 4.901252024414677e-05 5.325808940116172e-05 7.041102009447982e-05 8.296123569291897e-05 6.267834002990224e-05 7.094677356094683e-05 6.336216814318466e-05 7.334248709245878e-05 7.282047051725474e-05 7.970330076809639e-05 5.479683253926725e-05 5.829877337084631e-05 6.487238486980424e-05 6.653326840960613e-05 7.37617944324428e-05 6.650448305101794e-05 6.684376521486171e-05 5.219148831871724e-05 3.454149192566218e-05 3.0285955745280283e-05 -1.5161712971027836e-05 -3.0330084952742676e-06 2.4210673621647663e-05 6.416578284997493e-05 7.721914688584461e-05 7.68309092795093e-05 8.824643985735376e-05 4.281750573410481e-05 -4.951051433566072e-06 1.875184396316895e-05 1.6016634769331994e-05 7.375689729659676e-05 7.976630835943533e-05 8.419845424165393e-05 8.218784712075485e-05 4.009237118104388e-05 -1.5529168161309933e-05 2.346218503065566e-05 7.582535554065149e-05 8.551348151725893e-05 7.691797893665191e-05 8.383453524377629e-05 8.924762783861815e-05 9.311844501293656e-05 9.09739475103157e-05 9.358371712688595e-05 8.845968020590106e-05 8.562665087813718e-05 7.065169769469466e-05 6.621669090287223e-05 6.443406675916905e-05 5.5656591880575676e-05 2.7736640709136526e-05 8.268243146653407e-05 8.239522101704481e-05 4.490346942956869e-05 7.249498653483114e-05 4.829827643959437e-05 3.847718740774363e-05 5.620691069369545e-05 2.4041260893062578e-05 3.457137382990686e-05 3.621592049547507e-05 6.69086730563916e-05 6.016510680902088e-05 4.927295853593396e-05 5.4062955367724694e-05 5.4892248847907614e-05 4.566930957203093e-05 6.518704249771283e-06 4.568154592924498e-05 2.370674642932539e-05 4.471818731216105e-05 3.6808111159966266e-05 2.6074185724116026e-05 2.4554423913899655e-05 3.355283640751775e-05 -1.6769324635957305e-06 9.327128228346192e-06 1.2845926896426799e-05 3.6901096250442296e-06 4.257874831325474e-06 -2.3138453178421453e-05 -8.13124610693945e-06 -1.555328461244904e-05 -1.5174331255250056e-05 -4.4988579802038544e-05 -2.1384205847731764e-05 -3.0994865383121596e-05 -4.78020525809158e-05 -3.088437952787364e-05 -1.4009953052701502e-05 -5.0447464508743505e-06 -4.615757176084079e-05 -1.619760658602513e-05 5.306512447716901e-06 -3.332110375148767e-05 -3.509980170315047e-05 -2.874046986788881e-05 -6.26084843650222e-05 3.948101215686893e-06 1.544640434097462e-05 3.4823611784125904e-05 1.8316705872682488e-05 3.6934434870397256e-05 -5.975430712713882e-06 -4.342259701758507e-05 -4.437581300862546e-05 -2.654040110394376e-05 -6.21458032490612e-05 -7.821209712296661e-05 -7.911237694783864e-05 -7.795511147952295e-05 1.7359415978649e-05 1.2007391488255512e-05 2.688602117183584e-05 -9.75546548013798e-06 5.1790739993690954e-05 -8.960592735350803e-06 -3.045096757667298e-05 -3.921790119793848e-05 -6.317507912870845e-05 -1.3893798017566501e-05 3.7065591524060194e-05 -4.022178210957325e-05 4.209989606374377e-06 5.273595642356441e-05 4.126300728708689e-05 1.8749079382970447e-06 1.9230968603651984e-05 4.5514455553534475e-05 5.3109831304289284e-05 5.1651521459678515e-05 6.832949658409316e-05 1.9514398553091175e-05 7.447510098467724e-05 3.421956263753593e-05 7.482163716721329e-05 6.383268077182056e-05 8.496202704373257e-05 4.423745196711762e-05 5.629433036078235e-05 6.566557754450976e-05 8.826146968728413e-05 7.884513025462238e-05 7.544441548067755e-05 8.162059643677198e-05 7.098998143279892e-05 8.449330674841068e-05 8.752142569320767e-05 8.10738821286303e-05 8.567566513905327e-05 7.547162225666335e-05 6.237821039833941e-05 6.353476154263399e-05 2.943093870211491e-05 3.0372405220400986e-05 -7.576717360687088e-05 -0.0001175623395369772 -0.00012353294452963626 -0.0001244493865431745 -0.00010532123566349301 -0.00010993451136613968 -9.800768507627179e-05 -8.376327334761537e-05 -8.921954746804761e-05 -0.00010362219771774787 0.00031903052590833586 0.0004943333484855405 -2.109140930402215e-05 0.00018815538491721094 -2.9384662145957617e-05 -3.527040005880557e-05 4.4457129472823025e-05 6.703136186534094e-05 -4.2529096792052094e-05 1.7525629721957843e-05 -6.416674065033886e-06 1.1335043615672022e-05 8.586403832465747e-05 1.2558240881301037e-06 1.4848940849115144e-05 -2.539743427300463e-06 1.6598915716302427e-05 2.7032709045544363e-05 -3.341280582419314e-05 -4.6972207853068474e-05 -6.220712212586642e-05 -7.484175837172353e-05 -5.623803714118472e-05 2.944200583770991e-05 5.0025168143798706e-05 -8.353389382974325e-05 0.0003039834453741205 -2.109106987044476e-05 -4.831859085033361e-05 0.00029382562323722127 -3.810641538502223e-05 0.0008242821936876538 0.000703070322814928 -6.167636421604165e-05 5.70364667692616e-05 3.8995766384640735e-05 9.661085676668911e-05 -6.249439481577636e-05 -3.491936287508819e-05 3.0026888509381473e-05 -1.8982296287193197e-05 8.611792807684301e-05 2.9141116761801468e-05 -8.013504327117903e-05 0.0004462369707039873 0.0006887718773143828 0.0006615522190119736 0.0006784600035936432 -3.0321707556768953e-05 1.4158012390433352e-05 0.0006626709883557345 0.0006618785944060613 0.00010328652133380208 0.0009084711190645691 -8.126263729263759e-05 -5.20459550767799e-05 -1.4502087325531313e-05 0.0001193452959212002 0.0005367992020127391 0.0007250533250312326 -5.6317187840036836e-05 4.861869654967771e-06 0.0002144879679087238 0.0006114188067924085 -4.816848427142901e-07 0.0008343372616541904 0.0003248380579715209 0.00029577621696136037 0.0002183874762000159 0.0007164362696473083 -1.142701146906203e-05 -2.4644034597670164e-05 3.070171025696034e-05 1.575777696906444e-05 3.6098506868713737e-06 -3.344457299458479e-05 6.766569421523124e-05 6.430959548340831e-05 8.37905088688018e-05 7.393043298739886e-05 6.997793239078571e-05 0.0002263485466584166 0.0006658639995724837 -1.8635998079415827e-05 -2.112381247416007e-05 0.0006354888547992646 0.0008304774755537617 9.048140988786345e-05 7.89884794264665e-05 -6.688423073781214e-05 -6.766844977128582e-05 0.0010159554753377087 0.0007110195232869151 7.581946965717218e-05 0.0009172111388473799 7.446079331131081e-05 9.690589969886784e-05 0.000737866040467656 7.118120756546203e-05 5.984268279070275e-05 8.98967549720132e-05 0.0006971585094203921 9.74211101622247e-05 0.0007022945295968582 0.0006970767750681388 5.174735021776519e-05 8.646184162668726e-05 9.640126292296113e-05 9.392477175720628e-05 8.590531166208757e-05 9.759456538599753e-05 7.984288637136789e-05 9.625852545851893e-05 8.156749879123116e-05 9.604790378822904e-05 9.85101600177086e-05 9.17487544393537e-05 9.390111323702816e-05 9.49095392478658e-05 9.731471420854835e-05 8.422211482241016e-05 7.816280456178269e-05 8.392198127820787e-05 8.166785998704221e-05 8.856432684758971e-05 8.396177778513879e-05 -4.852444124620661e-05 4.659865003852705e-05 6.245241851279094e-05 4.8517400367275015e-05 5.5100767429098206e-05 4.591106987755304e-05 6.574132318072478e-05 5.7974607456856725e-05 8.167929694717476e-05 6.768869381973197e-05 9.399236828823437e-05 2.874254448379375e-05 2.5462139287233617e-05 0.0005033586536208082 0.0006601696142734327 0.0006208024559267341 0.0006832551866852972 4.71631062073621e-05 -5.070241362463169e-06 -3.0144946246190732e-05 0.0006818335718639036 0.0005289307061494892 3.052458414219051e-05 2.7431496026013525e-06 0.0006441449760762613 -7.544236368881371e-05 0.0010137186904225133 0.0009820187087060776 6.709530485641021e-05 6.175252520652205e-05 4.2778568921157766e-05 5.074756645030432e-05 9.883239189551987e-05 9.553529599183857e-05 9.218099001819487e-05 9.770209355727877e-05 9.183389799888238e-05 9.460192324580234e-05 9.627149222968303e-05 9.734683156716085e-05 9.602969109056312e-05 8.58060201139568e-05 9.423874195519923e-05 9.527608416945656e-05 9.588619343781806e-05 9.663456284486338e-05 8.596988389250886e-05 9.595