<?xml version="1.0"?>
<VTKFile type="UnstructuredGrid"  version="0.1"  >
<UnstructuredGrid>
<Piece  NumberOfPoints="1289" NumberOfCells="2413">
<Points>
<DataArray  type="Float64"  NumberOfComponents="3"  format="ascii">0 0 0  0 0.41 0  2.2 0.41 0  2.2 0 0  0.1 0.1 0  0.1 0.3 0  0.8 0.3 0  0.8 0.1 0  0.25 0.2 0  0.248976 0.210065 0  0.245948 0.219718 0  0.241038 0.228563 0  0.234448 0.23624 0  0.226448 0.242432 0  0.217365 0.246888 0  0.207571 0.249423 0  0.197468 0.249936 0  0.187467 0.248404 0  0.17798 0.24489 0  0.169395 0.239539 0  0.162062 0.232569 0  0.156283 0.224265 0  0.152293 0.214968 0  0.150257 0.205058 0  0.150257 0.194942 0  0.152293 0.185032 0  0.156283 0.175735 0  0.162062 0.167431 0  0.169395 0.160461 0  0.17798 0.15511 0  0.187467 0.151596 0  0.197468 0.150064 0  0.207571 0.150577 0  0.217365 0.153112 0  0.226448 0.157568 0  0.234448 0.16376 0  0.241038 0.171437 0  0.245948 0.180282 0  0.248976 0.189935 0  1.1 0 0  1.1 0.41 0  0.1 0.2 0  0.45 0.1 0  0.45 0.3 0  0.55 0 0  0.275 0.1 0  0.275 0.3 0  0.275 0 0  0.55 0.41 0  0 0.205 0  0.825 0 0  0.825 0.41 0  0.275 0.41 0  0.1 0.15 0  0.1875 0.1 0  0.1 0.25 0  0.1875 0.3 0  0.132322 0.2 0  0.241426 0.253518 0  0.241426 0.146482 0  0.264574 0.17974 0  0.264574 0.22026 0  0.138434 0.187348 0  0.153372 0.150948 0  0.148413 0.164094 0  0.176495 0.136535 0  0.22768 0.143571 0  0.138434 0.212652 0  0.148413 0.235906 0  0.176495 0.263465 0  0.22768 0.256429 0  0.23125 0.3 0  0.24769 0.24094 0  0.23125 0.1 0  0.24769 0.15906 0  0.26253 0.193641 0  0.190482 0.137872 0  0.166753 0.146661 0  0.157737 0.244461 0  0.190482 0.262128 0  0.203107 0.261264 0  0.253635 0.22977 0  0.203107 0.138736 0  0.253635 0.17023 0  0.261028 0.206206 0  0.167707 0.251809 0  0.143629 0.224191 0  0.215302 0.2591 0  0.270465 0.245894 0  0.215302 0.1409 0  0.270465 0.154106 0  0.284052 0.202587 0  0.14375 0.3 0  0.209375 0.3 0  0.225966 0.278501 0  0.209375 0.1 0  0.225966 0.121499 0  0.211613 0.273759 0  0.211613 0.126241 0  0.143629 0.175809 0  0.1 0.175 0  0.133484 0.164832 0  0.144491 0.249539 0  0.1 0.225 0  0.133484 0.235168 0  0.3625 0.3 0  0.25691 0.253381 0  0.25691 0.146619 0  0.277205 0.188698 0  0.184724 0.275712 0  0.237372 0.268285 0  0.184724 0.124288 0  0.237372 0.131715 0  0.197578 0.273149 0  0.193656 0.286994 0  0.197578 0.126851 0  0.193656 0.113006 0  0.122953 0.187671 0  0.118362 0.153758 0  0.155372 0.258107 0  0.122953 0.212329 0  0.118362 0.246242 0  0.276394 0.27264 0  0.276394 0.12736 0  0.280965 0.170013 0  0.253125 0.3 0  0.14375 0.1 0  0.253125 0.1 0  0.269489 0.26014 0  0.269489 0.13986 0  0.303639 0.184297 0  0.165625 0.3 0  0.134742 0.273113 0  0.257831 0.274737 0  0.255279 0.128499 0  0.3625 0.1 0  0.165625 0.1 0  0.162031 0.132368 0  0.134955 0.126405 0  0.149334 0.125568 0  0.142936 0.139597 0  0.12695 0.140259 0  0.242514 0.285501 0  0.242514 0.114499 0  0.1 0.125 0  0.117483 0.12555 0  0.11154 0.139776 0  0.121875 0.1 0  0.109143 0.1125 0  0.126805 0.114 0  0.220313 0.29129 0  0.351562 0.287369 0  0.207222 0.2866 0  0.220312 0.10871 0  0.1375 0 0  0.20625 0 0  0.207222 0.1134 0  0.11722 0.17118 0  0.1 0.1625 0  0.0778409 0.16875 0  0.0862762 0.15625 0  0 0.15375 0  0 0.1025 0  0.11722 0.22882 0  0.1 0.2375 0  0 0.3075 0  0.0862762 0.23125 0  0.0598995 0.222547 0  0.0860223 0.2125 0  0.289584 0.181469 0  0.300267 0.16446 0  0.163832 0.269071 0  0.149597 0.273325 0  0.1 0.275 0  0.268498 0.285953 0  0.31875 0.3 0  0.294154 0.254672 0  0.296875 0.3 0  0.293558 0.271845 0  0.285095 0.286799 0  0.324298 0.264316 0  0.307866 0.263745 0  0.317093 0.234901 0  0.315485 0.281219 0  0.316547 0.250625 0  0.344693 0.243731 0  0.331592 0.251147 0  0.35129 0.270663 0  0.338689 0.263683 0  0.340625 0.3 0  0.249849 0.264383 0  0.265097 0.11422 0  0.284688 0.156136 0  0.242188 0.324017 0  0.0856613 0.2625 0  0.132812 0.0612217 0  0.264062 0.0612217 0  0.198437 0.07598340000000001 0  0.0860223 0.1375 0  0.0794526 0.191089 0  0.285228 0.140397 0  0.298655 0.148737 0  0.31875 0.1 0  0.327335 0.15374 0  0.296875 0.1 0  0.312289 0.155283 0  0.313348 0.135607 0  0.321802 0.173916 0  0.298433 0.134116 0  0.112124 0.2625 0  0.127526 0.259083 0  0.121875 0.3 0  0.0682687 0.241503 0  0.1 0.2875 0  0.117762 0.28125 0  0.107813 0.3 0  0.103906 0.313849 0  0.0778409 0.28125 0  0.1375 0.41 0  0.0862762 0.29375 0  0.08886860000000001 0.24375 0  0.307812 0.338778 0  0.307812 0.292227 0  0.33216 0.279164 0  0.387888 0.266414 0  0.264063 0.31948 0  0.110937 0.07598340000000001 0  0.242188 0.07598340000000001 0  0.319914 0.11839 0  0.340625 0.1 0  0.334448 0.133793 0  0.329687 0.108539 0  0.346259 0.118491 0  0.360334 0.173636 0  0.327539 0.205033 0  0.132812 0.288712 0  0.362436 0.278836 0  0.368105 0.259418 0  0.4125 0.41 0  0.329687 0.324017 0  0.329687 0.292306 0  0.285938 0.318952 0  0.417187 0.338778 0  0.324481 0.14148 0  0.351562 0.106771 0  0.40625 0.1 0  0.341028 0.168342 0  0.319221 0.190479 0  0.335292 0.184501 0  0.305563 0.20794 0  0.220313 0.31948 0  0.132812 0.332772 0  0.0865876 0.311259 0  0.0598995 0.302453 0  0.0906541 0.343255 0  0.353543 0.255837 0  0.36574 0.237633 0  0.405007 0.254279 0  0.275795 0.352123 0  0.4125 0 0  0.35493 0.137394 0  0.366563 0.120618 0  0.35917 0.205246 0  0.198438 0.318952 0  0.0626109 0.263892 0  0.40625 0.3 0  0.354809 0.155936 0  0.386512 0.146872 0  0.373101 0.159939 0  0.384375 0.1 0  0.343394 0.19929 0  0.350682 0.185683 0  0.368101 0.189748 0  0.344016 0.221511 0  0.391108 0.213329 0  0.376279 0.204783 0  0.398843 0.182768 0  0.375804 0.222746 0  0.390665 0.196958 0  0.394004 0.23518 0  0.359883 0.222828 0  0.419908 0.204359 0  0.404243 0.204783 0  0.412615 0.224526 0  0.20625 0.41 0  0.165625 0.325257 0  0.0347982 0.244954 0  0.379558 0.247154 0  0.34165 0.147603 0  0.372264 0.136992 0  0.388988 0.121989 0  0.373437 0.108554 0  0.351562 0.31948 0  0.391367 0.16527 0  0.399572 0.223324 0  0.452011 0.227371 0  0.40877 0.239392 0  0.431491 0.237337 0  0.421224 0.250459 0  0.449619 0.262098 0  0.418865 0.276779 0  0.437063 0.252274 0  0.415673 0.263227 0  0.430988 0.266772 0  0.402767 0.273419 0  0.452967 0.244883 0  0.428125 0.3 0  0.408502 0.286186 0  0.384375 0.3 0  0.392267 0.285807 0  0.465927 0.219339 0  0.43489 0.283846 0  0.376424 0.286289 0  0.625 0.3 0  0.473533 0.205186 0  0.461713 0.255517 0  0.5375 0.3 0  0.465725 0.235405 0  0.44631 0.201425 0  0.471875 0.3 0  0.494307 0.227729 0  0.459448 0.206736 0  0.462294 0.180792 0  0.478933 0.227536 0  0.486793 0.21381 0  0.486322 0.251373 0  0.50065 0.215318 0  0.54005 0.175389 0  0.474633 0.189893 0  0.512916 0.208697 0  0.49531 0.199967 0  0.475889 0.175275 0  0.625 0.1 0  0.459311 0.153933 0  0.513645 0.242704 0  0.392892 0.248539 0  0.374815 0.271913 0  0.365974 0.14871 0  0.395312 0.109184 0  0.417061 0.123981 0  0.483196 0.277003 0  0.381967 0.179632 0  0.429898 0.219374 0  0.433473 0.206165 0  0.43149 0.181038 0  0.444208 0.215487 0  0.472985 0.247309 0  0.49375 0.3 0  0.475579 0.262714 0  0.49916 0.274293 0  0.501175 0.184809 0  0.514164 0.225681 0  0.543648 0.214977 0  0.5341630000000001 0.23481 0  0.527396 0.216171 0  0.5375 0.1 0  0.534548 0.202315 0  0.561545 0.192513 0  0.5494289999999999 0.201221 0  0.570923 0.218346 0  0.412582 0.149833 0  0.489327 0.264745 0  0.502439 0.254775 0  0.462391 0.271166 0  0.496775 0.241732 0  0.5294410000000001 0.268606 0  0.482812 0.291099 0  0.46879 0.285038 0  0.452663 0.284065 0  0.51789 0.257882 0  0.53408 0.252026 0  0.560142 0.243543 0  0.545708 0.243474 0  0.547532 0.229019 0  0.55282 0.265323 0  0.398971 0.153424 0  0.400349 0.135684 0  0.410135 0.168145 0  0.428823 0.161323 0  0.415266 0.183779 0  0.329687 0.0810483 0  0.395312 0.0612217 0  0.373437 0.318952 0  0.439062 0.324017 0  0.561816 0.229354 0  0.585029 0.239287 0  0.431827 0.139854 0  0.446796 0.168929 0  0.351562 0.07598340000000001 0  0.395313 0.318944 0  0.54337 0.150762 0  0.460937 0.31948 0  0.418412 0.137529 0  0.428125 0.1 0  0.442783 0.152332 0  0.450742 0.134294 0  0.373437 0.0805201 0  0.384383 0.342558 0  0.482812 0.318952 0  0.429239 0.127457 0  0.444274 0.117405 0  0.426548 0.113815 0  0.49375 0.1 0  0.488954 0.113984 0  0.457973 0.121842 0  0.471621 0.137346 0  0.515625 0.325257 0  0.48125 0.41 0  0.417187 0.07598340000000001 0  0.496363 0.126778 0  0.479043 0.155715 0  0.439062 0.0805201 0  0.481795 0.126919 0  0.471875 0.1 0  0.489227 0.142159 0  0.515625 0.1 0  0.520062 0.147117 0  0.501244 0.161791 0  0.505431 0.112984 0  0.505344 0.14029 0  0.526563 0.119081 0  0.5181750000000001 0.131908 0  0.539868 0.136937 0  0.460937 0.108383 0  0.474242 0.114415 0  0.460937 0.0810483 0  0.487841 0.167168 0  0.526563 0.0612217 0  0.526563 0.106406 0  0.537619 0.112743 0  0.58125 0.1 0  0.559375 0.1 0  0.482812 0.08105569999999999 0  0.471883 0.0587655 0  0.570312 0.129396 0  0.548437 0.07598340000000001 0  0.504687 0.08105569999999999 0  0.49375 0.0470127 0  0.570312 0.112663 0  0.592798 0.12103 0  0.553986 0.12103 0  0.570312 0.0805201 0  0.48125 0 0  0.114787 0.2 0  0.160769 0.284765 0  0.175816 0.288361 0  0.162602 0.116048 0  0.154687 0.07598340000000001 0  0.176562 0.0805201 0  0.0598995 0.147547 0  0.307812 0.109924 0  0.291279 0.117157 0  0.278491 0.112989 0  0.285937 0.07598340000000001 0  0.307812 0.0805201 0  0.296928 0.196743 0  0.318141 0.218507 0  0.330208 0.227509 0  0.301397 0.225668 0  0.302706 0.241401 0  0.292574 0.21424 0  0.282762 0.230935 0  0.284351 0.244775 0  0.269553 0.23261 0  0.278572 0.217242 0  0.226924 0.342606 0  0.446928 0.185396 0  0.515625 0.3 0  0.504687 0.288879 0  0.515256 0.276534 0  0.529479 0.285328 0  0.58125 0.3 0  0.541969 0.272936 0  0.559375 0.3 0  0.556796 0.282529 0  0.543473 0.287206 0  0.581429 0.267774 0  0.566728 0.271171 0  0.570869 0.255585 0  0.577404 0.283865 0  0.603125 0.3 0  0.597531 0.28035 0  0.570312 0.338778 0  0.592188 0.292492 0  0.603513 0.256094 0  0.614063 0.286265 0  0.610329 0.27064 0  0.632708 0.251285 0  0.657223 0.261594 0  0.618789 0.257807 0  0.614188 0.22987 0  0.630935 0.265614 
[...]
<PointData  Scalars="p"> 
	<DataArray  type="Float64"  Name="p"  format="ascii">
0.0007011119198360045 0.0006749414788620153 -1.4620293615870275e-07 -7.147094381475456e-08 0.0007602945824585856 0.000752708127298231 5.847495011493303e-05 5.749926556015619e-05 -0.00026451203850476926 -0.0002785106731967027 -0.0003328636628841422 -0.00033609611403604913 -0.00032971821581918214 -0.0004057762046404289 -0.0003486580550080476 -0.00012966227867194628 -0.0002921726790779249 -0.0004743295230071538 -0.00031853098048352773 1.3202577357588655e-05 0.0005179765279783241 0.001160104316957747 0.0016810902566413348 0.0020096420122934196 0.0020043227965296628 0.0016634264749469513 0.0011449218981217353 0.0005047302136329986 -9.052856960598067e-05 -0.0003281098700021128 -0.0004435094400953615 -0.0002991322031605807 -0.00012745674662368542 -0.0003467786640419923 -0.000403332427985068 -0.00032415778858004436 -0.0003326966023949527 -0.0003319348531111187 -0.00027931046054816217 8.740043166440216e-05 8.457886605273161e-05 0.0014013191690121544 -0.00015120407535994474 -0.0001503385081378337 -7.432375925932608e-05 -7.961179448627815e-05 -8.661635042670016e-05 0.00017255313486179966 -5.724812202649909e-05 0.0009975676504667486 4.128730256235408e-05 4.1425615249617824e-05 0.00019556356091573362 0.001070516085774077 0.00027013876522977035 0.0010702081646189667 0.000280793675250721 0.0018199974028128686 -0.00022603379816986998 -0.0002241705562995074 -0.00028257231792814445 -0.00028506672213143527 0.0017701630787692651 0.0006038450899327443 0.0009989609652828503 1.3804665891546614e-06 -0.0003484193767177811 0.001783697512988907 0.001007720304917099 1.8552961651564838e-05 -0.00034786863430730236 4.396718757730899e-05 -0.00020119861742767182 4.272145812969059e-05 -0.00020228337316999609 -0.00027962231906843746 -0.00019417504829470368 0.00012237854534904075 0.0005038000984278416 -0.00020314327059251408 -0.0001739773759258218 -0.00031239494850127 -0.0001758988601668314 -0.00031326379354530026 -0.0002796254253732452 9.570989708220945e-05 0.0014403349358380784 -0.00016249028362338424 -0.00027213994104194247 -0.00016107613286161381 -0.0002705096232423111 -0.0002725225194953621 0.0005938280076040486 0.00012371847345068966 -0.000178486564686535 0.00015283923875841223 -0.00016829092954666902 -0.00011467694466125835 -0.0001147655814694269 0.0014259023105788813 0.0012799207672058287 0.0012791409318989879 0.0008216931381459825 0.0013001863020844205 0.0013020200533934575 -0.00016879762565790175 -0.0002408836376917527 -0.0002427112802532088 -0.000276563423984479 8.701351324200845e-05 -0.00020796382288399608 7.941062838930179e-05 -0.00021359037197383665 -4.002431387768512e-05 0.00014017947935216315 -2.6525361910695996e-05 0.00014481173994648606 0.00160673349190318 0.001132957797231971 0.000549080239781255 0.0016053291934215643 0.0011387555836704377 -0.0002173991557746405 -0.00022481811066076495 -0.00027411085462613894 -5.802909408988786e-05 0.0005929654644486689 -3.847514164515729e-05 -0.0002341556909061828 -0.00023754726696264107 -0.0002655158258476737 0.0004434110562803019 0.0007761494729914414 -0.0002312446043221032 -0.00021899483894874242 -0.00016909205678254172 0.0004647589569280159 0.00040712801381786616 0.0007552631592887137 0.0006128250497433826 0.0007016877934714136 0.0009093260009898306 -0.00010325272135668055 -9.263438541230589e-05 0.0008792192759635817 0.0008453149945711376 0.0009692632840514236 0.0007035670574608427 0.0007910030647820056 0.000742026454541388 -2.760372457219474e-06 -0.0002037067662803229 2.626816187085627e-05 -5.645829156719139e-07 0.0006153824026176828 0.0004054433041486363 4.638657018426767e-05 0.0013439518179460409 0.0011726631386636303 0.0011340614704361924 0.001079695647772316 0.0009312977676173644 0.0007894343436849219 0.0013463873080256557 0.0011939844665133845 0.0007581172392188146 0.0011543615912276341 0.001089447088942643 0.001250023909954741 -0.00027120604383206105 -0.0002666499573477576 0.00035460457583570953 0.0005890497813414808 0.000878692336283491 -0.00017245523244512127 -0.000145268255323527 -0.0002734041893643018 -0.00013980845376878887 -0.00025276458764333877 -0.00018984835622343877 -0.0002547856830996608 -0.0002503724790246465 -0.00026136374343271597 -0.00022088662413270155 -0.0002557643665343129 -0.00025046966761021496 -0.0002547984491306982 -0.0002373581310467622 -0.00024471477875297166 -0.0001780638998388702 -0.00022872737426074357 -0.00018966087980457638 -0.00026689277224990727 0.00014313165867151895 0.0009714789714245083 0.0006104757704001059 0.0001364081460231504 0.00034525240296023787 0.0009519194949566027 0.0012120914499926046 -0.0002610199421305162 -0.00026327865409054863 -0.0001420313089585046 -0.0002566999209706649 -0.00014580907663907822 -0.00026221306740253187 -0.00025443935647812915 -0.0002587114563364761 -0.00025692256342200884 0.0009571399563777647 0.000914863792850219 0.0007002781740790114 0.0010402118420449516 0.0008189155159175744 0.0008009105588694675 0.0007317265998371009 0.0006979611833599076 0.0008482273426452179 0.0005873508439562567 0.0007949399002239742 0.0010982527820823469 1.9749783074517658e-05 -0.00018449743722655565 -0.00023163352839335774 -0.00022495791841268482 4.715324194812821e-05 0.0006843639113097433 0.00015048327895411616 -0.0002302934237241979 -0.00017478757068228347 -0.00024467995341182717 -0.0001957562344855429 -0.0002241703601384826 -0.00024343894955382623 -0.00025608815754449955 0.0006825686225640776 -0.0002265720949862304 -0.00023668147120430047 -5.371609201236271e-05 -6.250668249708097e-05 -0.00020183753776628236 -1.745229485983142e-05 -9.780450825458583e-05 -0.00025320888524684647 -0.00018899264993997673 -0.00016732676700259184 -0.0002518499877107366 -0.0002593990180193011 -0.0002532445866168745 -0.0002648061970128855 0.00018500955291145328 0.0006045827240171794 0.000733894406667379 0.0007735624890441494 0.0006612947672983908 -0.00024557537440682715 -0.0002411338549493483 -0.00021826765259056843 0.0001455589810746818 -8.056356651064496e-05 -0.00024203432287246492 -0.00021927229330151495 -0.0002427752961679767 0.00031813690528074246 0.0009256571460231405 -0.00016657306396171344 -0.0002461232442187839 -0.00023027143392240082 -0.00023791474173180902 -0.00017237306899063447 -0.0002496488133055459 -0.00024688573440364 -0.00023893497780403113 -0.0002498888714500475 -0.00022688411929423934 -0.0002346052931026017 -0.00022286127479870797 -0.0002356677070681773 -0.00022692392883054202 -0.00022642675927304497 -0.00024319903811669373 -0.00020833139005817933 -0.00021872524183764905 -0.00021438176861317759 0.0004165704908825698 0.000469929530428981 0.0009526045612270055 -0.00023442850408894077 -0.00025036727056448015 -0.0002327026008717185 -0.00021217994755771925 -0.00019753848678505216 -0.0001041450144182099 -0.00022827370455718473 -0.0002225439322625775 -0.00018486133229369173 -0.00021760947663266152 -0.0002017875229373212 -0.00020854591505123176 -0.0001844888253061146 -0.00019706604288726836 -0.00019634669250372718 -0.00020858936685306284 -0.0001964283681684818 -0.00021083697090697604 -0.0001842862246784346 -0.00016061562635880688 -0.00019306820085970104 -0.00017758972284974875 -0.00019976176426516929 -0.00017197208337063638 -0.0001806665147369738 -0.0002080161313962786 -1.7406105815904625e-05 -0.00016436457862849333 -0.00017488640852867066 -8.601983748435706e-05 -0.00017306095489755147 -0.00018836173016777358 -0.00013633323067802845 -0.0001449883752086582 -0.00017698225333140642 -0.00017566208137066703 -0.00016047934754240595 -0.00015170529340309527 -0.0001530155293119258 -0.00013760318157146427 -9.59475781173445e-05 -0.0001636129070929187 -0.00012431392508456594 -0.00014281783929902185 -0.00016364536356231743 -1.902772172039163e-05 -0.00017917337970405127 -0.00012521488110931372 -0.0002264567189587973 -0.00022327311348630275 -0.0002397268637184964 -0.00018874942927938693 -0.0001996779931883392 -0.00014676611065076651 -0.00023263610561212545 -0.00020196770609084836 -0.00019845986078881667 -0.00020103157417617512 -0.00019054144407671002 -0.00016626499827843749 -0.00011862522025384623 -0.00016062551338974983 -0.00013427426064831235 -0.0001375337106930874 -0.00012402186720154054 -9.066010819763937e-05 -0.00010257590739044791 -0.00010888382445334051 -8.717781379775001e-05 -0.00010050044354906064 -7.048280194669322e-05 -8.386536245874052e-05 -6.041111654357723e-05 -0.00021443765034492333 -0.00014696807999981453 -0.0001360935697052957 -0.0001695404660568444 -0.00014302527573356044 -0.00010572137944301397 -0.00013660574863248878 -0.00015366637120051488 -0.00016682852017315468 -0.00011971294557739137 -0.00010254680049854118 -7.396014432470532e-05 -9.018481078538192e-05 -8.724861207898946e-05 -8.128081416398186e-05 -0.00022322385681349614 -0.00021858592188475783 -0.00021709543889304479 -0.00020422403189313185 -0.0002123627824567066 -9.550628679284028e-05 -9.187858965507461e-05 -0.00012528048377018298 -0.00011721523385366573 -7.130619210896614e-05 -4.6406741185123905e-05 -0.00019870679531260344 -0.00018984635616907852 -9.26328398057035e-05 -0.00012336929723684336 -9.295551191019869e-05 -0.00011827187945858515 -0.0002058252064849917 -0.00016243491797561792 -0.00019275722864239812 -0.00018182749888461585 -0.00012761707859836396 -7.045238985724232e-05 -0.00011451215783257873 -0.00019280862573604722 -0.00017249581799769215 -0.0001859735523498633 -0.0001230628317346112 -0.00013751459315679995 -0.0001689849672173855 -0.00016438220816201177 -8.359101138756864e-05 -8.434908520932763e-05 -0.00012074101211121839 -0.00013628865917844572 -0.000160903784723063 -0.00013196546561966227 -0.00015139551595279521 -0.00013674885027682983 -0.00014914233382246742 -0.0001044563019123689 -0.0001181287001007695 -0.00013890679265850402 -0.00012063047293451107 -0.0001325413464578677 -0.0001053135402147253 -0.0001177650424436695 -9.526541362579405e-05 -0.0001550039455816106 -0.00014791122829734555 -0.00012752037942152417 -0.0001520858283531506 -7.994152702108817e-05 -9.950800144171283e-05 -9.137533969696028e-05 -5.0670058878506164e-05 -6.993843043785689e-05 -0.00011140309766183152 -0.00010735343430178396 -6.29465020853724e-05 -6.78034593541847e-05 -0.00010295287946484265 -9.145185643814451e-05 -6.060242467141203e-05 -4.232018470287869e-05 -7.903248952265571e-05 -6.080001606005831e-05 -0.00010257716035297262 0.0015707505302915874 0.0004670625941731675 0.00028897660211040405 0.00042981012728668286 0.0005438424737485087 0.00043406281598809993 0.0009761768972990805 -0.0001900940929645767 -0.0002149589563994409 -0.00015582327609842893 9.276690446475242e-06 -5.099415122571382e-05 -0.00026808215418737993 -0.00025979863876044514 -0.00025542148573808374 -0.0002662647819446145 -0.0002633297445351439 -0.0002697665612790238 -0.0002741134628884293 -0.00026900924248441553 -0.0002708902751639846 -0.00027791223118845424 0.000272971658512916 -0.00018847313676130604 -0.00010421031021180283 -0.00012116283177888113 -0.00011636431553389296 -9.965336689211081e-05 -5.062202548223949e-05 -9.10080388728859e-05 -6.709040460646736e-05 -7.455030544222035e-05 -8.510479577609392e-05 -5.158893963008454e-05 -6.604472672468848e-05 -6.273775871856881e-05 -5.562709739017995e-05 -3.483148980714401e-05 -3.6120250221982585e-05 -5.4780108376259756e-05 -4.276427861037845e-05 -2.887718411830304e-05 -2.345681464330174e-05 -2.436722569909089e-05 -8.151851260753658e-07 1.6666607522570048e-05 -1.4393404635564847e-05 -1.562197885924791e-05 -4.977651392969901e-06 -1.0885123315765397e-05 9.840885520264922e-06 9.884864858518564e-06 3.05319135197186e-05 -8.780613244252275e-06 4.689610209975799e-06 -4.5300135032003455e-06 1.5348032741607314e-05 -7.235636446673931e-05 -3.97774963404039e-05 -3.8033585444776804e-05 -4.493718064900714e-05 7.226263110391009e-06 4.2091079210967166e-05 -1.0174315523926122e-05 -3.1217200001151426e-05 2.926718790509581e-05 2.0778132982029326e-05 3.321680579349591e-05 2.133902167814358e-05 3.708024078725793e-05 3.643226726744731e-05 2.5384506878911277e-05 5.3862614716797986e-05 1.2772095655590071e-05 2.1212280839867227e-05 4.702406748854058e-05 2.8456257511427604e-05 8.935610910466508e-05 2.8878618756537852e-05 5.248499504112223e-05 4.4792170815238555e-05 6.866751568501727e-05 5.002202073500732e-05 5.9756698982476014e-05 4.24769944464568e-05 4.627641140920238e-05 4.073846635852805e-05 6.170417693726389e-05 5.83697635732896e-05 5.2419689081975495e-05 4.896330436876832e-05 5.3244534498254075e-05 7.048245106957494e-05 8.310682686192534e-05 6.263017973970154e-05 7.097673117325483e-05 6.338556001680915e-05 7.348081378649909e-05 7.278236384135057e-05 7.97828200986339e-05 5.4832144021281107e-05 5.832876032980554e-05 6.495289944103211e-05 6.664268544441035e-05 7.392911975501428e-05 6.663014457166993e-05 6.699193314848204e-05 5.224987502106737e-05 3.437916887200878e-05 3.01637066674239e-05 -1.527466726429521e-05 -3.1413671320421707e-06 2.4123770141329503e-05 6.41178609604834e-05 7.733781437249184e-05 7.684056498988298e-05 8.833793027817889e-05 4.281317527469047e-05 -5.067908930931351e-06 1.8662672387656107e-05 1.5910368931276573e-05 7.371774716933427e-05 7.976394590392364e-05 8.429788655417302e-05 8.222970995267616e-05 4.005320924551529e-05 -1.561666015954474e-05 2.3366870155137807e-05 7.586162464907472e-05 8.553990474623488e-05 7.692295020601875e-05 8.403659041512032e-05 8.929927442114065e-05 9.315445301208926e-05 9.106626821285112e-05 9.376740748048329e-05 8.862036567031341e-05 8.568434845669612e-05 7.064800877528918e-05 6.631077465815798e-05 6.446274811476158e-05 5.5643861940036614e-05 2.7844318570153035e-05 8.255782997760071e-05 8.240319838754683e-05 4.501487882966454e-05 7.25304928176909e-05 4.83290845906361e-05 3.8503979972919125e-05 5.629944947953238e-05 2.419515755137282e-05 3.468658851595323e-05 3.641163784789131e-05 6.698021078211718e-05 6.027824978431971e-05 4.9434678897634034e-05 5.4193954632386224e-05 5.503277906218371e-05 4.584000520297298e-05 6.655922396635291e-06 4.5826648819490116e-05 2.3881435740397764e-05 4.475946317192276e-05 3.699707187778472e-05 2.628264926272433e-05 2.475774481595999e-05 3.373018681792511e-05 -1.4938424002595439e-06 9.541527197781137e-06 1.3034092473691615e-05 3.743715953272491e-06 4.395484464013306e-06 -2.305440548496052e-05 -8.036651816707124e-06 -1.556983574813289e-05 -1.5031180541682787e-05 -4.488551992649068e-05 -2.120653183043171e-05 -3.087993169171657e-05 -4.775997299509552e-05 -3.0737019266259846e-05 -1.3832275583002083e-05 -4.841947938192252e-06 -4.6034638351333964e-05 -1.6023747986026157e-05 5.495752177968498e-06 -3.3169752177657155e-05 -3.499111016029397e-05 -2.8590781658405244e-05 -6.253510819590632e-05 4.155146691083649e-06 1.565137534335262e-05 3.4988150844588113e-05 1.8455682600057873e-05 3.705953219722233e-05 -5.825794431639296e-06 -4.331351338074132e-05 -4.4305995870342906e-05 -2.640104278164054e-05 -6.209767157773635e-05 -7.816985123604938e-05 -7.909033051878151e-05 -7.794612617141894e-05 1.7514343097904168e-05 1.217263168917504e-05 2.7026115092163212e-05 -9.64706255540808e-06 5.18769241496172e-05 -8.797943075007393e-06 -3.03686829473077e-05 -3.918055097740184e-05 -6.31506526835716e-05 -1.3792163463489397e-05 3.7153353471971014e-05 -4.0166220840132356e-05 4.335929647461097e-06 5.2774738974109044e-05 4.135519459785241e-05 1.9940874922066723e-06 1.9321491331538467e-05 4.5566800379814e-05 5.3128947609213296e-05 5.16543231104941e-05 6.83087455494181e-05 1.9630206201550775e-05 7.436071533768747e-05 3.4298664752520935e-05 7.474563402928902e-05 6.377265845220015e-05 8.477236406307158e-05 4.4255130909744446e-05 5.6287245713756916e-05 6.562078119337961e-05 8.818439106602464e-05 7.882826410788607e-05 7.540235961827186e-05 8.15451066259467e-05 7.10151707642164e-05 8.445755666055953e-05 8.750075963410171e-05 8.108050666735972e-05 8.567937681702546e-05 7.550121549086648e-05 6.24116028200342e-05 6.36125101109748e-05 2.9448070805595216e-05 3.035731793763822e-05 -7.574897335277262e-05 -0.0001175848722548774 -0.00012358289920575782 -0.00012450695060228355 -0.00010535266558848669 -0.00010996672363703044 -9.802124152648508e-05 -8.376666656091645e-05 -8.9191516067017e-05 -0.00010364919885482177 0.0003190193351620634 0.0004943251208379413 -2.1108682896609654e-05 0.00018816618848160817 -2.9507727652957285e-05 -3.5323919873384347e-05 4.4316413409803685e-05 6.695515302399758e-05 -4.257536410977802e-05 1.744993185099913e-05 -6.398185097672285e-06 1.1222049646132012e-05 8.611316177368435e-05 1.206694617673227e-06 1.4836691057362852e-05 -2.653334577232142e-06 1.668778992686999e-05 2.710447303252311e-05 -3.339527130424496e-05 -4.698378569594757e-05 -6.22119584112997e-05 -7.484637687924624e-05 -5.622803520120505e-05 2.9538399175787457e-05 4.9981120441849075e-05 -8.355535981056522e-05 0.00030399442254585576 -2.1158702308810845e-05 -4.837076225325271e-05 0.0002938362162216933 -3.81519264206661e-05 0.0008242762703832874 0.0007030761667400335 -6.167085011513368e-05 5.7213761110875696e-05 3.900371167618081e-05 9.652273997333698e-05 -6.25141008117602e-05 -3.49353960928566e-05 3.0013808527958366e-05 -1.8999494205682822e-05 8.610309732616118e-05 2.907003208273616e-05 -8.015380327049187e-05 0.00044624507292031194 0.0006887656160800917 0.0006615580409821836 0.0006784661000825884 -3.0341107108240242e-05 1.4060973165555323e-05 0.0006626647464375491 0.000661884598595879 0.00010330095993125919 0.0009084744748877172 -8.127673297057064e-05 -5.2024651534528465e-05 -1.4587570118120036e-05 0.00011933113333307546 0.0005368060250108246 0.0007250590447820876 -5.6338050105921814e-05 4.7642841652367825e-06 0.00021447518670221228 0.0006114248215347546 -5.869168944227468e-07 0.0008343418398307395 0.0003248271916239072 0.00029576473530631693 0.00021837504987070398 0.0007164298323931805 -1.13215272406141e-05 -2.4571507059210093e-05 3.076543381388851e-05 1.5875614063470296e-05 3.7214856242067538e-06 -3.3420917851898694e-05 6.754130929152197e-05 6.415039370834594e-05 8.359634889022611e-05 7.374896661505967e-05 7.014941006344407e-05 0.00022636045936987885 0.000665870024769324 -1.8616349769857113e-05 -2.119952317119647e-05 0.0006354946839510717 0.0008304720658923575 9.039085159388672e-05 7.881066630709179e-05 -6.686263784300366e-05 -6.765572248047443e-05 0.0010159537345204377 0.0007110129931203643 7.563051152558105e-05 0.0009172070552311437 7.427232291955216e-05 9.680556471312902e-05 0.0007378597145566096 7.094197488378138e-05 5.966946972039612e-05 8.974918622641212e-05 0.0006971519745118697 9.726227993715946e-05 0.0007022879891150008 0.0006970702892484 5.162907617184967e-05 8.647753339968308e-05 9.654893828671724e-05 9.370881358525231e-05 8.584835431927066e-05 9.773351289111339e-05 7.973751115917195e-05 9.629798258581319e-05 8.159248227566515e-05 9.603935072939321e-05 9.851969806975244e-05 9.18172987932375e-05 9.408845220016726e-05 9.502890389285076e-05 9.732987696660569e-05 8.433571390820177e-05 7.808402262976427e-05 8.395832248868289e-05 8.16840236224208e-05 8.871875065127066e-05 8.408838966576703e-05 -4.8545063087433786e-05 4.666257243090644e-05 6.266130619406084e-05 4.863348124855227e-05 5.524991597283421e-05 4.59940968547833e-05 6.591706282403326e-05 5.816361883009272e-05 8.185170796443329e-05 6.791428374088555e-05 9.384877119099976e-05 2.8714500260736227e-05 2.5402579902131907e-05 0.0005033661996171969 0.000660163292524725 0.0006207958588490503 0.0006832488122286566 4.7179435748198304e-05 -5.051757116199485e-06 -3.020492120232814e-05 0.0006818396021478132 0.0005289228620010681 3.056266205709204e-05 2.862026159678742e-06 0.0006441508297371864 -7.542165334443043e-05 0.0010137192321575715 0.0009820168684087514 6.689789627578057e-05 6.155811897599524e-05 4.2748669218437635e-05 5.063626611101801e-05 9.883340775728893e-05 9.577492883283125e-05 9.238603705902418e-05 9.766029391612967e-05 9.1677623588981e-05 9.45323759635072e-05 9.612792871523756e-05 9.730248860222939e-05 9.605646909903463e-05 8.589894876772375e-05 9.404951403264035e-05 9.505199124781176e-05 9.570970548244537e-05 9.679375069212351e-05 8.57167462800735e-05 9.586085360057315e-05 6.244733