<?xml version="1.0"?>
<VTKFile type="UnstructuredGrid"  version="0.1"  >
<UnstructuredGrid>
<Piece  NumberOfPoints="1289" NumberOfCells="2413">
<Points>
<DataArray  type="Float64"  NumberOfComponents="3"  format="ascii">0 0 0  0 0.41 0  2.2 0.41 0  2.2 0 0  0.1 0.1 0  0.1 0.3 0  0.8 0.3 0  0.8 0.1 0  0.25 0.2 0  0.248976 0.210065 0  0.245948 0.219718 0  0.241038 0.228563 0  0.234448 0.23624 0  0.226448 0.242432 0  0.217365 0.246888 0  0.207571 0.249423 0  0.197468 0.249936 0  0.187467 0.248404 0  0.17798 0.24489 0  0.169395 0.239539 0  0.162062 0.232569 0  0.156283 0.224265 0  0.152293 0.214968 0  0.150257 0.205058 0  0.150257 0.194942 0  0.152293 0.185032 0  0.156283 0.175735 0  0.162062 0.167431 0  0.169395 0.160461 0  0.17798 0.15511 0  0.187467 0.151596 0  0.197468 0.150064 0  0.207571 0.150577 0  0.217365 0.153112 0  0.226448 0.157568 0  0.234448 0.16376 0  0.241038 0.171437 0  0.245948 0.180282 0  0.248976 0.189935 0  1.1 0 0  1.1 0.41 0  0.1 0.2 0  0.45 0.1 0  0.45 0.3 0  0.55 0 0  0.275 0.1 0  0.275 0.3 0  0.275 0 0  0.55 0.41 0  0 0.205 0  0.825 0 0  0.825 0.41 0  0.275 0.41 0  0.1 0.15 0  0.1875 0.1 0  0.1 0.25 0  0.1875 0.3 0  0.132322 0.2 0  0.241426 0.253518 0  0.241426 0.146482 0  0.264574 0.17974 0  0.264574 0.22026 0  0.138434 0.187348 0  0.153372 0.150948 0  0.148413 0.164094 0  0.176495 0.136535 0  0.22768 0.143571 0  0.138434 0.212652 0  0.148413 0.235906 0  0.176495 0.263465 0  0.22768 0.256429 0  0.23125 0.3 0  0.24769 0.24094 0  0.23125 0.1 0  0.24769 0.15906 0  0.26253 0.193641 0  0.190482 0.137872 0  0.166753 0.146661 0  0.157737 0.244461 0  0.190482 0.262128 0  0.203107 0.261264 0  0.253635 0.22977 0  0.203107 0.138736 0  0.253635 0.17023 0  0.261028 0.206206 0  0.167707 0.251809 0  0.143629 0.224191 0  0.215302 0.2591 0  0.270465 0.245894 0  0.215302 0.1409 0  0.270465 0.154106 0  0.284052 0.202587 0  0.14375 0.3 0  0.209375 0.3 0  0.225966 0.278501 0  0.209375 0.1 0  0.225966 0.121499 0  0.211613 0.273759 0  0.211613 0.126241 0  0.143629 0.175809 0  0.1 0.175 0  0.133484 0.164832 0  0.144491 0.249539 0  0.1 0.225 0  0.133484 0.235168 0  0.3625 0.3 0  0.25691 0.253381 0  0.25691 0.146619 0  0.277205 0.188698 0  0.184724 0.275712 0  0.237372 0.268285 0  0.184724 0.124288 0  0.237372 0.131715 0  0.197578 0.273149 0  0.193656 0.286994 0  0.197578 0.126851 0  0.193656 0.113006 0  0.122953 0.187671 0  0.118362 0.153758 0  0.155372 0.258107 0  0.122953 0.212329 0  0.118362 0.246242 0  0.276394 0.27264 0  0.276394 0.12736 0  0.280965 0.170013 0  0.253125 0.3 0  0.14375 0.1 0  0.253125 0.1 0  0.269489 0.26014 0  0.269489 0.13986 0  0.303639 0.184297 0  0.165625 0.3 0  0.134742 0.273113 0  0.257831 0.274737 0  0.255279 0.128499 0  0.3625 0.1 0  0.165625 0.1 0  0.162031 0.132368 0  0.134955 0.126405 0  0.149334 0.125568 0  0.142936 0.139597 0  0.12695 0.140259 0  0.242514 0.285501 0  0.242514 0.114499 0  0.1 0.125 0  0.117483 0.12555 0  0.11154 0.139776 0  0.121875 0.1 0  0.109143 0.1125 0  0.126805 0.114 0  0.220313 0.29129 0  0.351562 0.287369 0  0.207222 0.2866 0  0.220312 0.10871 0  0.1375 0 0  0.20625 0 0  0.207222 0.1134 0  0.11722 0.17118 0  0.1 0.1625 0  0.0778409 0.16875 0  0.0862762 0.15625 0  0 0.15375 0  0 0.1025 0  0.11722 0.22882 0  0.1 0.2375 0  0 0.3075 0  0.0862762 0.23125 0  0.0598995 0.222547 0  0.0860223 0.2125 0  0.289584 0.181469 0  0.300267 0.16446 0  0.163832 0.269071 0  0.149597 0.273325 0  0.1 0.275 0  0.268498 0.285953 0  0.31875 0.3 0  0.294154 0.254672 0  0.296875 0.3 0  0.293558 0.271845 0  0.285095 0.286799 0  0.324298 0.264316 0  0.307866 0.263745 0  0.317093 0.234901 0  0.315485 0.281219 0  0.316547 0.250625 0  0.344693 0.243731 0  0.331592 0.251147 0  0.35129 0.270663 0  0.338689 0.263683 0  0.340625 0.3 0  0.249849 0.264383 0  0.265097 0.11422 0  0.284688 0.156136 0  0.242188 0.324017 0  0.0856613 0.2625 0  0.132812 0.0612217 0  0.264062 0.0612217 0  0.198437 0.07598340000000001 0  0.0860223 0.1375 0  0.0794526 0.191089 0  0.285228 0.140397 0  0.298655 0.148737 0  0.31875 0.1 0  0.327335 0.15374 0  0.296875 0.1 0  0.312289 0.155283 0  0.313348 0.135607 0  0.321802 0.173916 0  0.298433 0.134116 0  0.112124 0.2625 0  0.127526 0.259083 0  0.121875 0.3 0  0.0682687 0.241503 0  0.1 0.2875 0  0.117762 0.28125 0  0.107813 0.3 0  0.103906 0.313849 0  0.0778409 0.28125 0  0.1375 0.41 0  0.0862762 0.29375 0  0.08886860000000001 0.24375 0  0.307812 0.338778 0  0.307812 0.292227 0  0.33216 0.279164 0  0.387888 0.266414 0  0.264063 0.31948 0  0.110937 0.07598340000000001 0  0.242188 0.07598340000000001 0  0.319914 0.11839 0  0.340625 0.1 0  0.334448 0.133793 0  0.329687 0.108539 0  0.346259 0.118491 0  0.360334 0.173636 0  0.327539 0.205033 0  0.132812 0.288712 0  0.362436 0.278836 0  0.368105 0.259418 0  0.4125 0.41 0  0.329687 0.324017 0  0.329687 0.292306 0  0.285938 0.318952 0  0.417187 0.338778 0  0.324481 0.14148 0  0.351562 0.106771 0  0.40625 0.1 0  0.341028 0.168342 0  0.319221 0.190479 0  0.335292 0.184501 0  0.305563 0.20794 0  0.220313 0.31948 0  0.132812 0.332772 0  0.0865876 0.311259 0  0.0598995 0.302453 0  0.0906541 0.343255 0  0.353543 0.255837 0  0.36574 0.237633 0  0.405007 0.254279 0  0.275795 0.352123 0  0.4125 0 0  0.35493 0.137394 0  0.366563 0.120618 0  0.35917 0.205246 0  0.198438 0.318952 0  0.0626109 0.263892 0  0.40625 0.3 0  0.354809 0.155936 0  0.386512 0.146872 0  0.373101 0.159939 0  0.384375 0.1 0  0.343394 0.19929 0  0.350682 0.185683 0  0.368101 0.189748 0  0.344016 0.221511 0  0.391108 0.213329 0  0.376279 0.204783 0  0.398843 0.182768 0  0.375804 0.222746 0  0.390665 0.196958 0  0.394004 0.23518 0  0.359883 0.222828 0  0.419908 0.204359 0  0.404243 0.204783 0  0.412615 0.224526 0  0.20625 0.41 0  0.165625 0.325257 0  0.0347982 0.244954 0  0.379558 0.247154 0  0.34165 0.147603 0  0.372264 0.136992 0  0.388988 0.121989 0  0.373437 0.108554 0  0.351562 0.31948 0  0.391367 0.16527 0  0.399572 0.223324 0  0.452011 0.227371 0  0.40877 0.239392 0  0.431491 0.237337 0  0.421224 0.250459 0  0.449619 0.262098 0  0.418865 0.276779 0  0.437063 0.252274 0  0.415673 0.263227 0  0.430988 0.266772 0  0.402767 0.273419 0  0.452967 0.244883 0  0.428125 0.3 0  0.408502 0.286186 0  0.384375 0.3 0  0.392267 0.285807 0  0.465927 0.219339 0  0.43489 0.283846 0  0.376424 0.286289 0  0.625 0.3 0  0.473533 0.205186 0  0.461713 0.255517 0  0.5375 0.3 0  0.465725 0.235405 0  0.44631 0.201425 0  0.471875 0.3 0  0.494307 0.227729 0  0.459448 0.206736 0  0.462294 0.180792 0  0.478933 0.227536 0  0.486793 0.21381 0  0.486322 0.251373 0  0.50065 0.215318 0  0.54005 0.175389 0  0.474633 0.189893 0  0.512916 0.208697 0  0.49531 0.199967 0  0.475889 0.175275 0  0.625 0.1 0  0.459311 0.153933 0  0.513645 0.242704 0  0.392892 0.248539 0  0.374815 0.271913 0  0.365974 0.14871 0  0.395312 0.109184 0  0.417061 0.123981 0  0.483196 0.277003 0  0.381967 0.179632 0  0.429898 0.219374 0  0.433473 0.206165 0  0.43149 0.181038 0  0.444208 0.215487 0  0.472985 0.247309 0  0.49375 0.3 0  0.475579 0.262714 0  0.49916 0.274293 0  0.501175 0.184809 0  0.514164 0.225681 0  0.543648 0.214977 0  0.5341630000000001 0.23481 0  0.527396 0.216171 0  0.5375 0.1 0  0.534548 0.202315 0  0.561545 0.192513 0  0.5494289999999999 0.201221 0  0.570923 0.218346 0  0.412582 0.149833 0  0.489327 0.264745 0  0.502439 0.254775 0  0.462391 0.271166 0  0.496775 0.241732 0  0.5294410000000001 0.268606 0  0.482812 0.291099 0  0.46879 0.285038 0  0.452663 0.284065 0  0.51789 0.257882 0  0.53408 0.252026 0  0.560142 0.243543 0  0.545708 0.243474 0  0.547532 0.229019 0  0.55282 0.265323 0  0.398971 0.153424 0  0.400349 0.135684 0  0.410135 0.168145 0  0.428823 0.161323 0  0.415266 0.183779 0  0.329687 0.0810483 0  0.395312 0.0612217 0  0.373437 0.318952 0  0.439062 0.324017 0  0.561816 0.229354 0  0.585029 0.239287 0  0.431827 0.139854 0  0.446796 0.168929 0  0.351562 0.07598340000000001 0  0.395313 0.318944 0  0.54337 0.150762 0  0.460937 0.31948 0  0.418412 0.137529 0  0.428125 0.1 0  0.442783 0.152332 0  0.450742 0.134294 0  0.373437 0.0805201 0  0.384383 0.342558 0  0.482812 0.318952 0  0.429239 0.127457 0  0.444274 0.117405 0  0.426548 0.113815 0  0.49375 0.1 0  0.488954 0.113984 0  0.457973 0.121842 0  0.471621 0.137346 0  0.515625 0.325257 0  0.48125 0.41 0  0.417187 0.07598340000000001 0  0.496363 0.126778 0  0.479043 0.155715 0  0.439062 0.0805201 0  0.481795 0.126919 0  0.471875 0.1 0  0.489227 0.142159 0  0.515625 0.1 0  0.520062 0.147117 0  0.501244 0.161791 0  0.505431 0.112984 0  0.505344 0.14029 0  0.526563 0.119081 0  0.5181750000000001 0.131908 0  0.539868 0.136937 0  0.460937 0.108383 0  0.474242 0.114415 0  0.460937 0.0810483 0  0.487841 0.167168 0  0.526563 0.0612217 0  0.526563 0.106406 0  0.537619 0.112743 0  0.58125 0.1 0  0.559375 0.1 0  0.482812 0.08105569999999999 0  0.471883 0.0587655 0  0.570312 0.129396 0  0.548437 0.07598340000000001 0  0.504687 0.08105569999999999 0  0.49375 0.0470127 0  0.570312 0.112663 0  0.592798 0.12103 0  0.553986 0.12103 0  0.570312 0.0805201 0  0.48125 0 0  0.114787 0.2 0  0.160769 0.284765 0  0.175816 0.288361 0  0.162602 0.116048 0  0.154687 0.07598340000000001 0  0.176562 0.0805201 0  0.0598995 0.147547 0  0.307812 0.109924 0  0.291279 0.117157 0  0.278491 0.112989 0  0.285937 0.07598340000000001 0  0.307812 0.0805201 0  0.296928 0.196743 0  0.318141 0.218507 0  0.330208 0.227509 0  0.301397 0.225668 0  0.302706 0.241401 0  0.292574 0.21424 0  0.282762 0.230935 0  0.284351 0.244775 0  0.269553 0.23261 0  0.278572 0.217242 0  0.226924 0.342606 0  0.446928 0.185396 0  0.515625 0.3 0  0.504687 0.288879 0  0.515256 0.276534 0  0.529479 0.285328 0  0.58125 0.3 0  0.541969 0.272936 0  0.559375 0.3 0  0.556796 0.282529 0  0.543473 0.287206 0  0.581429 0.267774 0  0.566728 0.271171 0  0.570869 0.255585 0  0.577404 0.283865 0  0.603125 0.3 0  0.597531 0.28035 0  0.570312 0.338778 0  0.592188 0.292492 0  0.603513 0.256094 0  0.614063 0.286265 0  0.610329 0.27064 0  0.632708 0.251285 0  0.657223 0.261594 0  0.618789 0.257807 0  0.614188 0.22987 0  0.630935 0.265614 
[...]
<PointData  Vectors="v"> 
	<DataArray  type="Float64"  Name="v"  NumberOfComponents="3" format="ascii">
0.0 0.0 0.0 0.0 0.0 0.0 0.0 0.0 0.0 0.0 0.0 0.0 0.7962674007019731 -0.19650826493232165 0.0 0.8405962886512434 0.2067199035691801 0.0 1.1704217598668458 -0.05896826093064895 0.0 1.1374200190074077 0.05576501533529432 0.0 0.0 0.0 0.0 0.0 0.0 0.0 0.0 0.0 0.0 0.0 0.0 0.0 0.0008757387927838517 0.0008102956996569478 0.0 0.00018465874933179364 0.0001809513524421361 0.0 0.0004435297350194504 0.0007787889328335952 0.0 0.0 0.0 0.0 0.0 0.0 0.0 0.0 0.0 0.0 0.0 0.0 0.0 0.0 0.0 0.0 0.0 0.0 0.0 0.0 0.0 0.0 0.0 0.0 0.0 0.0 0.0 0.0 0.0 0.0 0.0 0.0 0.0 0.0 0.0 0.0 0.0 0.0 0.0 0.0 0.0 0.0 0.0 0.0 0.0 0.0 0.0 0.0 0.0 0.0 0.0 0.0 0.0 0.0 0.0 0.000524231986049428 -0.0009101621457214621 0.0 0.00045714361377281764 -0.0006535236581600277 0.0 0.0008656836845292614 -0.0008043496812504397 0.0 0.0 0.0 0.0 0.0 0.0 0.0 0.0 0.0 0.0 0.0 0.0 0.0 0.0 0.0 0.0 0.7612646066257802 -0.0018534245608586087 0.0 1.2772878061229997 0.08343135242664211 0.0 1.2672879052057766 -0.07742252940145944 0.0 0.0 0.0 0.0 1.3547398186604482 -0.1337767610047589 0.0 1.357936378622876 0.15646912288876602 0.0 0.0 0.0 0.0 0.0 0.0 0.0 1.0 0.0 0.0 0.0 0.0 0.0 0.0 0.0 0.0 0.0 0.0 0.0 0.8426439765087987 -0.23238389700708978 0.0 1.152086826610394 -0.3443196759611697 0.0 0.8637258085064142 0.2288377105958792 0.0 1.1668256922528566 0.3545533880138032 0.0 0.4282592571964563 -0.005152951853917084 0.0 0.16524033932218954 0.06138576157145701 0.0 0.17038781976509693 -0.060735270786763565 0.0 -0.028188227586135546 -0.03771182633214008 0.0 -0.026492700319020693 0.03541697973498289 0.0 0.3345210754694411 -0.2810464123231088 0.0 0.858153417138856 -0.6744229774018871 0.0 0.6402770694899785 -0.6891309089571567 0.0 1.2060341788613484 -0.6133850708151385 0.0 0.41605950200248065 -0.06868836122345884 0.0 0.3303853956982427 0.2675571041241343 0.0 0.6430037632527212 0.6685233518858751 0.0 1.1862708006271447 0.6157433512776093 0.0 0.4076489251228849 0.07060114006360771 0.0 1.313449159520027 0.2619560381125757 0.0 0.33936933806628955 0.26261894181307216 0.0 1.302924031154283 -0.24028704468906364 0.0 0.3303546350171828 -0.2500879151977164 0.0 -0.03390442690074766 -0.017004287020686633 0.0 1.124808223523063 -0.39849387485788546 0.0 1.0932101660392928 -0.724671512163112 0.0 0.8525688555034694 0.7705893479155962 0.0 1.1327586178072098 0.4001707760852356 0.0 0.7601470326485135 0.18620772256052415 0.0 0.11214303148362596 0.0521962454866917 0.0 0.7697266495862992 -0.1817598601400141 0.0 0.11502868345741264 -0.050781842381552554 0.0 -0.029956945440085432 0.019052269253258192 0.0 1.028475948117296 0.7192622823667569 0.0 0.44229186558251815 0.5281811183014624 0.0 0.4580426649674068 0.17719669368919255 0.0 0.2816690076970128 0.06981418770511147 0.0 0.4645605863137681 -0.17330888516052295 0.0 0.28773204984753636 -0.065162238041074 0.0 -0.07443769608262521 0.002271367437743475 0.0 0.9657303203129118 0.3157382437427713 0.0 1.2609807207541441 0.3143944312849463 0.0 1.2451278004979192 0.28909956062968634 0.0 1.2353965618364082 -0.30692372132076656 0.0 1.248369334761725 -0.28058265711017905 0.0 1.221028840684793 0.3315413441816284 0.0 1.226507916617828 -0.3220497411289057 0.0 0.44322184965493067 -0.5456944212685331 0.0 0.8020815654178497 -0.14018904692519757 0.0 0.6717510881439588 -0.42096916878021434 0.0 0.8777923894138707 0.5927967922786561 0.0 0.7991869949732826 0.14232833282420035 0.0 0.676617695490768 0.41862685351464435 0.0 1.2942378686360945 -0.0068735429555781755 0.0 0.29856387949519064 0.148725578742067 0.0 0.2998799235718789 -0.13901080310719266 0.0 -0.05395702368834422 -0.011958650763370824 0.0 1.2662668356502216 0.4722536425656428 0.0 0.7675240986903997 0.1200118570010875 0.0 1.2612316103281114 -0.47314245612973743 0.0 0.7893790862844573 -0.11513799937849295 0.0 1.2768317753481107 0.4188235621273017 0.0 1.2549786398150289 0.4018381654177119 0.0 1.271532243453531 -0.4136515895536245 0.0 1.245038268416905 -0.38076573958715143 0.0 0.5836461560419984 -0.16175477564486537 0.0 0.7965694326585844 -0.3327876017967263 0.0 1.0110962580986975 0.6032005440613054 0.0 0.5916649866477592 0.14926690596338435 0.0 0.8126313625888696 0.3301978376527588 0.0 0.7437678186314511 0.08258021442997344 0.0 0.7832938680103702 -0.07436706789642852 0.0 0.05522276056405323 -0.019992310412218363 0.0 1.3632795075087332 0.20847906338339695 0.0 0.9302307244521644 -0.3229958723014088 0.0 1.3451363231888163 -0.1901120899426174 0.0 0.4123922590866344 0.09364199983619254 0.0 0.43066355811178997 -0.0805592439895421 0.0 -0.05251603683180113 -0.007483635164232952 0.0 1.0577560327007762 0.3530382031859684 0.0 0.9435169640044975 0.389584949639414 0.0 0.9200762970861122 0.1127806608599593 0.0 0.8241191171953219 -0.08702044551909693 0.0 1.308909571767091 0.016822972175810653 0.0 1.0281720948046393 -0.3458552384477044 0.0 1.0746813105576491 -0.5710813761066588 0.0 0.9303337783698825 -0.39034330163511566 0.0 0.9977422561892801 -0.4396300757664625 0.0 0.93317709692008 -0.543921608735693 0.0 0.8656744702611259 -0.40752107317955666 0.0 1.2728431313309159 0.2332956055503373 0.0 1.2719088357120005 -0.2197394795486138 0.0 0.8527065728893206 -0.2361433564987189 0.0 0.8790918226309297 -0.3107036377273209 0.0 0.8529293085621259 -0.29974961437473957 0.0 0.8516655332138975 -0.2570082861261367 0.0 0.8543219526339352 -0.2533802980450502 0.0 0.896435861018394 -0.3202389108777262 0.0 1.3296993954630687 0.31662894211184905 0.0 1.084621662460241 -0.0017621752473488345 0.0 1.3154897688217062 0.3633338309476746 0.0 1.3215673176219027 -0.2952774703557744 0.0 0.0 0.0 0.0 0.0 0.0 0.0 1.299642774535061 -0.34866806900291164 0.0 0.7143738661454673 -0.2683656762837629 0.0 0.8204638458817726 -0.21125976316841577 0.0 0.8712148396701395 -0.11097882102441517 0.0 0.8624944166151705 -0.16404837831666283 0.0 0.9375 0.0 0.0 0.7500000000000001 0.0 0.0 0.722415657054977 0.2640123995842122 0.0 0.823935489911808 0.1996955688799873 0.0 0.7499999999999999 0.0 0.0 0.8696692413683146 0.1275967008728406 0.0 0.9286738081477506 0.04272178830260148 0.0 0.8480665878772476 0.044792253473570465 0.0 -0.03317656429180639 -0.010310113510818782 0.0 0.09470650541355945 -0.016759292144946324 0.0 1.1158151005164838 0.5543920333081952 0.0 1.0195295837891298 0.4719670372227531 0.0 0.8810135048935387 0.24481357594787925 0.0 1.1985156782225463 0.14021628571082528 0.0 1.3299514838247424 0.06140069566807452 0.0 0.3562199510586564 0.039574193959652025 0.0 1.3566991782508744 0.10443819748497901 0.0 0.7131437770981782 0.056264700808507095 0.0 1.1695733408271916 0.10188201584514968 0.0 0.5149689290346211 0.01766245644606403 0.0 0.49708868797918376 0.03219854469473038 0.0 0.07200036477349094 0.013843072699365527 0.0 0.955307174910204 0.03666456215326223 0.0 0.25895849442522634 0.02348410622273581 0.0 0.1643918563985314 0.009308306088020172 0.0 0.2688442935720068 0.01579810972683781 0.0 0.6663773064750795 -0.0038804472741877285 0.0 0.4984110878655434 0.008357129405446702 0.0 1.3172979353077363 0.020266884877146684 0.0 0.5406193634895525 0.06137877990009477 0.0 1.2305801021348928 -0.14316205487615058 0.0 0.20762846509941266 -0.03683446075254624 0.0 1.2059390010525584 0.17456019904374134 0.0 0.8827216519429331 0.17958153549910674 0.0 0.7013017678929646 -0.16826756898171552 0.0 1.11619002478214 -0.09456345343160014 0.0 1.0394632871503662 -0.2234617120249041 0.0 0.8637959938329851 -0.18293812501232717 0.0 0.87539324242354 -0.025812275852601402 0.0 0.44349140619126165 -0.049560212166361625 0.0 0.29460344228121527 -0.033515819693269715 0.0 1.3306853385351844 -0.04324201383585673 0.0 0.21085033180773644 -0.013829964220019897 0.0 1.3568960310173015 -0.08739317943997585 0.0 0.19450401494394715 -0.01925641828740887 0.0 0.5375986781400065 -0.016835938602424178 0.0 0.0007891369358921352 -0.011040016876243003 0.0 0.574236111834063 -0.03297093949245093 0.0 0.8789919369901218 0.29586686993402506 0.0 0.8798598334932314 0.4088378228457329 0.0 0.8854423366472722 0.2683975864356394 0.0 0.9122023273606064 0.10968235213988535 0.0 0.8653240531079516 0.22245594038996402 0.0 0.9050168672421695 0.3018848822426209 0.0 0.857535274952629 0.23207822172607662 0.0 0.8023371285645212 0.18197178337621292 0.0 0.8669621145873151 0.16142159337850956 0.0 0.0 0.0 0.0 0.8415065818502554 0.1763594952813267 0.0 0.870592127986157 0.1708244793062016 0.0 1.213478483877735 0.050513526765161625 0.0 1.2373682252495142 0.06711465652359569 0.0 0.889406656984664 0.014778146000307068 0.0 0.5943024723858825 -0.02574626615182959 0.0 1.2801794103013524 0.14817635153914974 0.0 0.7177194583560234 -0.17414229569668255 0.0 1.178858347018824 -0.1642745087540763 0.0 0.9996981334011458 -0.02094456795656416 0.0 1.3256894479091619 -0.007421910233260663 0.0 0.5871612266480114 -0.0008441419963432622 0.0 1.2218411987804083 -0.012930147875247228 0.0 0.9850911845161208 0.00873512839948287 0.0 -0.0026518626168078522 -0.007030307350432724 0.0 -0.09421904118536992 0.001296778514440557 0.0 0.9451351077894713 0.3392795712360102 0.0 0.8775470377223491 -0.017925050630284753 0.0 0.42772407359908415 -0.007589789432066983 0.0 0.0 0.0 0.0 1.3306293918240044 0.03795437800913472 0.0 1.2128089032050482 0.02619986391876691 0.0 1.3181153025613324 0.11532730367474736 0.0 1.253259178171036 -0.044425801702828324 0.0 0.4156571418149827 -0.014606618390481295 0.0 1.2302985797505628 0.010083053942602714 0.0 1.293228024434536 0.05694764066941073 0.0 0.04311618887467724 -0.009889370248618325 0.0 -0.08046904172092825 -0.004941878147264585 0.0 -0.06556265391380575 -0.007375451247231885 0.0 -0.0794074797195398 0.00294432280277391 0.0 1.1858465372795852 0.22098163339916563 0.0 0.7772666468578661 0.19697607142601137 0.0 0.7779990473870506 0.15364412908608788 0.0 0.7856473784236732 0.10689641807193742 0.0 0.6209334164841853 0.11004400565766988 0.0 0.3533806661604748 0.0023208545336308264 0.0 0.09420439461169408 0.004365508294077461 0.0 0.3652380112546777 -0.020442840799483768 0.0 1.0714837390442524 0.07725902160511666 0.0 0.0 0.0 0.0 0.5214458691405968 0.011125442891338544 0.0 0.9336033413140478 0.029227735797155763 0.0 -0.10766620835531009 0.0007801677521956546 0.0 1.0969188841871482 0.26791175041316173 0.0 0.9002898644379211 0.11228384716744239 0.0 1.2812394617266358 -0.04988612519181421 0.0 0.18853733240294662 -0.0038479005211586336 0.0 0.3604566273937498 0.01788418281399624 0.0 0.14477325092307633 0.00011895921910835608 0.0 1.3051246129333802 0.03925877113247926 0.0 -0.10419235437907906 -0.0014323441209891019 0.0 -0.0755510444008385 -0.0064651905468742265 0.0 -0.09596508402567183 -0.00446543510699224 0.0 -0.04197136155275973 0.007345809072967734 0.0 -0.09418778920338264 0.001249478153891675 0.0 -0.11426823827614017 0.00023975306546025732 0.0 -0.06519218879173508 -0.0019382928282359309 0.0 -0.040192276644572734 0.0037393330640131013 0.0 -0.11808173347348694 -0.0019104190779096974 0.0 0.07604128791024722 -0.0017456985638914344 0.0 -0.03749413859614275 0.006030431387802614 0.0 -0.1216659131958969 -0.001002194028641531 0.0 -0.12031474065360713 -0.0006302257547552146 0.0 -0.02276561669457604 -0.002285433263537874 0.0 0.0 0.0 0.0 0.9459314463164988 0.2546897012206939 0.0 0.9513382273652685 0.04004357568292639 0.0 0.22532637649537815 -0.004033037264445011 0.0 0.3105090775672921 -0.004937051361802934 0.0 0.545938941643005 0.02091395927277276 0.0 0.914131395526938 0.04315450637854373 0.0 1.1941581421818974 0.03475737728819526 0.0 1.3562465617784702 0.015041778055987562 0.0 0.08971752036227937 0.0022928567190042665 0.0 -0.03483670834286731 0.0002883508407866756 0.0 0.02351940775431664 -0.011554085560546986 0.0 0.13603349712267856 -0.008582700396304589 0.0 0.12625292817029488 -0.013714864795552895 0.0 0.315940806030862 -0.02320926005683916 0.0 0.575759969887265 -0.050936341868143734 0.0 0.8599572432338825 -0.05261088476916809 0.0 0.36723957248380223 -0.03173775591283618 0.0 0.5555598541981638 -0.0358686639588201 0.0 0.6509993167531125 -0.047858640381369465 0.0 0.7704502520386234 -0.04117092120692348 0.0 0.25968786924844645 -0.028197950149541635 0.0 1.2738227337103234 -0.06508090863338413 0.0 1.0591533007131002 -0.052066481863464124 0.0 1.2875769766395648 -0.029086943081946252 0.0 1.0493558447413536 -0.039918145673448854 0.0 -0.041789712738046096 -0.008682001757183788 0.0 1.0279214905241212 -0.06722039853744305 0.0 1.0603953959081298 -0.030044232184983713 0.0 1.2279942693806178 -0.10273642589934488 0.0 -0.10749847687455898 -0.0020753180601119684 0.0 0.4609086403307417 -0.04562521646978228 0.0 1.2527439425474087 -0.1050623947604742 0.0 0.13223788958600466 -0.021663214700608568 0.0 -0.12062715427673527 -0.0006855023232981172 0.0 1.2626561265012837 -0.08753372561095298 0.0 0.06390462242952037 -0.02089854789640333 0.0 -0.11021050041809416 -0.002380025175166835 0.0 -0.024739783554186677 0.010149668003459731 0.0 0.04645940826234931 -0.017543876051529763 0.0 -0.06663604508654777 -0.007874893717096708 0.0 0.4190360582882479 -0.04883995146575641 0.0 -0.04670497439315968 -0.010617176001855176 0.0 0.11410305858130637 0.030514978124680958 0.0 -0.08090983211575557 0.0058019183592197985 0.0 -0.07185612419582822 -0.006217727954905287 0.0 -0.09825297018109035 0.0007180618152150938 0.0 0.041027684060634576 0.017308397154598774 0.0 1.2173478685185206 0.10312262623958889 0.0 0.3292698530771111 0.037609730306082105 0.0 0.30493155038586306 -0.044531301854415666 0.0 0.2561545581387334 -0.00995813534476566 0.0 0.7079850089872687 -0.020308459566230445 0.0 0.30779337056590317 0.005471754818769456 0.0 1.1786984929916688 0.05313161431049723 0.0 0.8907074671356838 0.06134722086415263 0.0 0.9300585935200606 -0.08266576216241132 0.0 -0.04609386610588916 -0.004119436840650206 0.0 -0.05778992403815862 -0.0035932830529841007 0.0 -0.11773162045825697 -0.0013725365762492735 0.0 -0.04414114899003377 0.004211890722682666 0.0 -0.07844383670699949 -0.004100510109312276 0.0 0.32637126739522804 -0.038465865964927216 0.0 1.2595188071865395 -0.09334091142227362 0.0 0.6266694447117813 -0.06154222763208447 0.0 0.894441548405935 -0.08570643431647901 0.0 -0.0274056434395155 0.012876938274855133 0.0 0.06142771521697654 -0.02275553181539164 0.0 -0.006875514675151341 -0.01463350045377601 0.0 0.20863324177596407 -0.0383863676385096 0.0 -0.015794226711012414 -0.014386270335803662 0.0 1.254936802068627 0.10646539864210604 0.0 -0.06577350430158305 -0.0007987398055561206 0.0 -0.01347492045410259 0.011328070471558715 0.0 -0.05035053796779988 0.0005413326030271303 0.0 0.055053388062477296 -0.02110545162230497 0.0 0.338806373174315 0.024802746894749164 0.0 0.6886120171794848 -0.06993346178728704 0.0 0.5077359048459107 -0.05959544532082425 0.0 0.7876213994624678 -0.06827726095196963 0.0 0.26503139158330646 -0.03821221811971009 0.0 0.8197546644701669 -0.0873338156086854 0.0 1.1676943566528986 -0.09081012225649286 0.0 1.068513405350408 -0.08360390371775604 0.0 1.0416086996755154 -0.07522960772882908 0.0 0.5924104926487695 -0.06921514328454051 0.0 0.5037955178166104 -0.0641994804321784 0.0 0.39092362885109 -0.056946669182895954 0.0 0.366360420983095 -0.053716312492975336 0.0 0.14448047121048097 -0.032689847154064575 0.0 0.7871906708986304 -0.08793201069712869 0.0 0.2611708564179186 0.01483057482204346 0.0 0.6084114726693025 0.038052440130223894 0.0 0.0685017173133759 0.006137170433568741 0.0 0.17304906835262832 0.017968663628453473 0.0 -0.06882215024589178 0.0003845672241299938 0.0 1.3348088590525669 -0.024422913108745496 0.0 1.2188329244745848 0.041250668839024084 0.0 1.3571862841884283 -0.011080902365041596 0.0 1.3276132050016107 -0.06340407243176845 0.0 0.1692800777279554 -0.035435494431190505 0.0 0.357146317038749 -0.05406326897484162 0.0 0.5603542017450653 0.04704817872048735 0.0 0.08869317517719717 0.01568937992206797 0.0 1.309894051193105 0.003470195258550152 0.0 1.3495534333159742 -0.033009761236481736 0.0 0.5194862998542389 0.06877052222328783 0.0 1.3280697057611328 -0.07683292422654131 0.0 0.5902381550217548 0.0435219276737301 0.0 1.2840636029686479 0.0723081022556953 0.0 0.3342935009318154 0.033784524753540913 0.0 0.7058302101764038 0.06408426077471205 0.0 1.3364653150874024 0.024528465608545248 0.0 1.232108021685998 -0.02312068678734162 0.0 1.3186982644158363 -0.0864511871086618 0.0 0.8266504217558823 0.06166251572883256 0.0 1.0495712609337373 0.07936653186437427 0.0 1.108727958790369 0.07273025823649701 0.0 1.268438556501773 0.09916740560750212 0.0 1.1304487949400186 0.09781035189886268 0.0 0.9767148916201003 0.08167728930566845 0.0 0.6705334039932581 0.06760199165431248 0.0 1.2743509676985507 -0.09023439943607853 0.0 0.0 0.0 0.0 1.309400847649191 0.057577825762028405 0.0 0.9188934063555438 0.08987105970850022 0.0 0.326933752331627 0.042135990081320185 0.0 1.3172979722887093 0.07212019709724224 0.0 0.901261120379515 0.08571993857659897 0.0 1.2724329748080019 0.09162148559184458 0.0 0.5999015237569826 0.06647814032589067 0.0 1.2634934958363064 0.10388147019479631 0.0 0.5509791526057208 0.0683339178066372 0.0 0.2575535525759369 0.040306586713584384 0.0 1.1485275439891607 0.10178518778002542 0.0 0.6632075496055895 0.07501455092800535 0.0 1.0743362685260616 0.10377832435391628 0.0 0.8464899912122047 0.09082406237956492 0.0 0.7775268615202195 0.08892854371522697 0.0 1.19742794831653 0.0893082925594573 0.0 1.118007479118373 0.09220422559453265 0.0 1.3075248244337112 0.08252066024676624 0.0 0.1573556605895523 0.02890493776393219 0.0 1.1528482472148565 0.07932077485030604 0.0 1.218105319672883 0.10708077376111565 0.0 1.1592631876172166 0.10761816450084895 0.0 1.2349964130317606 0.10781943076292996 0.0 1.2451619338030606 0.10834424298768332 0.0 1.2924573426807218 0.08754176525925979 0.0 1.1841675814087567 0.06887416675114177 0.0 0.9467157281561878 0.10176843980836076 0.0 1.230181672380591 0.09255842097261206 0.0 1.2802032992959425 0.0909654990658731 0.0 1.0455651397081747 0.06555336913417353 0.0 1.1638594952797805 0.11009072812844524 0.0 1.0808263873196067 0.1085990787971247 0.0 1.0613190294607822 0.10643107606635292 0.0 1.2334765171435271 0.09731657568421416 0.0 0.0 0.0 0.0 0.6444447576904151 -0.00666126665131659 0.0 1.0784225580742373 0.4333511851527319 0.0 1.1677394847840592 0.4220998050932817 0.0 1.082755487306011 -0.427594524012455 0.0 0.8660416236143745 -0.22752050331677343 0.0 0.9796669881107404 -0.2557199697298812 0.0 0.8924018397739155 -0.08511136606985921 0.0 1.2240609545938372 -0.05312468950290819 0.0 1.0819661280252142 -0.06528769900419787 0.0 1.1993785657479115 -0.105607781955215 0.0 1.266427775913532 -0.0854063241558135 0.0 1.316918745356564 -0.0541356294844415 0.0 -0.08175019773364323 -0.0022482571722417916 0.0 -0.04836777520306697 0.007788805979244723 0.0 0.0025681239748307507 0.01047527778336059 0.0 0.0028931826693286617 0.011637693267526655 0.0 0.14981578595780454 0.0270751966615298 0.0 -0.055715714609147295 0.007636202600010504 0.0 0.06441426935359201 0.02019320438871958 0.0 0.2225377196580357 0.03669595279540316 0.0 0.08842317533786453 0.03654803357949331 0.0 -0.03540473679447392 0.013685872848463088 0.0 1.0341876128057101 0.16164874408842322 0.0 -0.06854317147943927 0.004775103413125145 0.0 1.2563480432839327 -0.10027735543710177 0.0 1.1436064018576644 -0.09803602137619324 0.0 0.9523153059203323 -0.09212315181194362 0.0 1.1058142325446711 -0.10173275180290364 0.0 1.2412486791783939 -0.10636351811054512 0.0 0.914834687991579 -0.09508571480798383 0.0 1.2487833306193368 -0.10633711623457612 0.0 1.0795581036808204 -0.10459554307424107 0.0 1.1349136987823314 -0.10445556049030909 0.0 0.8658710357973008 -0.09429198096126945 0.0 0.909320540213207 -0.09688519307696361 0.0 0.6282641989818749 -0.0772115128764692 0.0 1.1063583780975081 -0.10708602519051869 0.0 1.2351776129774603 -0.10577662958646947 0.0 1.0710678920759311 -0.10470356552636016 0.0 1.1690026869421788 -0.08592659885790256 0.0 1.1952183605429514 -0.1080018505747555 0.0 0.6843457793872887 -0.08115039436567698 0.0 1.1431267264441156 -0.10510984246155179 0.0 0.9414888356814359 -0.09802805401958417 0.0 0.6391