<?xml version="1.0"?>
<VTKFile type="UnstructuredGrid"  version="0.1"  >
<UnstructuredGrid>
<Piece  NumberOfPoints="1289" NumberOfCells="2413">
<Points>
<DataArray  type="Float64"  NumberOfComponents="3"  format="ascii">0 0 0  0 0.41 0  2.2 0.41 0  2.2 0 0  0.1 0.1 0  0.1 0.3 0  0.8 0.3 0  0.8 0.1 0  0.25 0.2 0  0.248976 0.210065 0  0.245948 0.219718 0  0.241038 0.228563 0  0.234448 0.23624 0  0.226448 0.242432 0  0.217365 0.246888 0  0.207571 0.249423 0  0.197468 0.249936 0  0.187467 0.248404 0  0.17798 0.24489 0  0.169395 0.239539 0  0.162062 0.232569 0  0.156283 0.224265 0  0.152293 0.214968 0  0.150257 0.205058 0  0.150257 0.194942 0  0.152293 0.185032 0  0.156283 0.175735 0  0.162062 0.167431 0  0.169395 0.160461 0  0.17798 0.15511 0  0.187467 0.151596 0  0.197468 0.150064 0  0.207571 0.150577 0  0.217365 0.153112 0  0.226448 0.157568 0  0.234448 0.16376 0  0.241038 0.171437 0  0.245948 0.180282 0  0.248976 0.189935 0  1.1 0 0  1.1 0.41 0  0.1 0.2 0  0.45 0.1 0  0.45 0.3 0  0.55 0 0  0.275 0.1 0  0.275 0.3 0  0.275 0 0  0.55 0.41 0  0 0.205 0  0.825 0 0  0.825 0.41 0  0.275 0.41 0  0.1 0.15 0  0.1875 0.1 0  0.1 0.25 0  0.1875 0.3 0  0.132322 0.2 0  0.241426 0.253518 0  0.241426 0.146482 0  0.264574 0.17974 0  0.264574 0.22026 0  0.138434 0.187348 0  0.153372 0.150948 0  0.148413 0.164094 0  0.176495 0.136535 0  0.22768 0.143571 0  0.138434 0.212652 0  0.148413 0.235906 0  0.176495 0.263465 0  0.22768 0.256429 0  0.23125 0.3 0  0.24769 0.24094 0  0.23125 0.1 0  0.24769 0.15906 0  0.26253 0.193641 0  0.190482 0.137872 0  0.166753 0.146661 0  0.157737 0.244461 0  0.190482 0.262128 0  0.203107 0.261264 0  0.253635 0.22977 0  0.203107 0.138736 0  0.253635 0.17023 0  0.261028 0.206206 0  0.167707 0.251809 0  0.143629 0.224191 0  0.215302 0.2591 0  0.270465 0.245894 0  0.215302 0.1409 0  0.270465 0.154106 0  0.284052 0.202587 0  0.14375 0.3 0  0.209375 0.3 0  0.225966 0.278501 0  0.209375 0.1 0  0.225966 0.121499 0  0.211613 0.273759 0  0.211613 0.126241 0  0.143629 0.175809 0  0.1 0.175 0  0.133484 0.164832 0  0.144491 0.249539 0  0.1 0.225 0  0.133484 0.235168 0  0.3625 0.3 0  0.25691 0.253381 0  0.25691 0.146619 0  0.277205 0.188698 0  0.184724 0.275712 0  0.237372 0.268285 0  0.184724 0.124288 0  0.237372 0.131715 0  0.197578 0.273149 0  0.193656 0.286994 0  0.197578 0.126851 0  0.193656 0.113006 0  0.122953 0.187671 0  0.118362 0.153758 0  0.155372 0.258107 0  0.122953 0.212329 0  0.118362 0.246242 0  0.276394 0.27264 0  0.276394 0.12736 0  0.280965 0.170013 0  0.253125 0.3 0  0.14375 0.1 0  0.253125 0.1 0  0.269489 0.26014 0  0.269489 0.13986 0  0.303639 0.184297 0  0.165625 0.3 0  0.134742 0.273113 0  0.257831 0.274737 0  0.255279 0.128499 0  0.3625 0.1 0  0.165625 0.1 0  0.162031 0.132368 0  0.134955 0.126405 0  0.149334 0.125568 0  0.142936 0.139597 0  0.12695 0.140259 0  0.242514 0.285501 0  0.242514 0.114499 0  0.1 0.125 0  0.117483 0.12555 0  0.11154 0.139776 0  0.121875 0.1 0  0.109143 0.1125 0  0.126805 0.114 0  0.220313 0.29129 0  0.351562 0.287369 0  0.207222 0.2866 0  0.220312 0.10871 0  0.1375 0 0  0.20625 0 0  0.207222 0.1134 0  0.11722 0.17118 0  0.1 0.1625 0  0.0778409 0.16875 0  0.0862762 0.15625 0  0 0.15375 0  0 0.1025 0  0.11722 0.22882 0  0.1 0.2375 0  0 0.3075 0  0.0862762 0.23125 0  0.0598995 0.222547 0  0.0860223 0.2125 0  0.289584 0.181469 0  0.300267 0.16446 0  0.163832 0.269071 0  0.149597 0.273325 0  0.1 0.275 0  0.268498 0.285953 0  0.31875 0.3 0  0.294154 0.254672 0  0.296875 0.3 0  0.293558 0.271845 0  0.285095 0.286799 0  0.324298 0.264316 0  0.307866 0.263745 0  0.317093 0.234901 0  0.315485 0.281219 0  0.316547 0.250625 0  0.344693 0.243731 0  0.331592 0.251147 0  0.35129 0.270663 0  0.338689 0.263683 0  0.340625 0.3 0  0.249849 0.264383 0  0.265097 0.11422 0  0.284688 0.156136 0  0.242188 0.324017 0  0.0856613 0.2625 0  0.132812 0.0612217 0  0.264062 0.0612217 0  0.198437 0.07598340000000001 0  0.0860223 0.1375 0  0.0794526 0.191089 0  0.285228 0.140397 0  0.298655 0.148737 0  0.31875 0.1 0  0.327335 0.15374 0  0.296875 0.1 0  0.312289 0.155283 0  0.313348 0.135607 0  0.321802 0.173916 0  0.298433 0.134116 0  0.112124 0.2625 0  0.127526 0.259083 0  0.121875 0.3 0  0.0682687 0.241503 0  0.1 0.2875 0  0.117762 0.28125 0  0.107813 0.3 0  0.103906 0.313849 0  0.0778409 0.28125 0  0.1375 0.41 0  0.0862762 0.29375 0  0.08886860000000001 0.24375 0  0.307812 0.338778 0  0.307812 0.292227 0  0.33216 0.279164 0  0.387888 0.266414 0  0.264063 0.31948 0  0.110937 0.07598340000000001 0  0.242188 0.07598340000000001 0  0.319914 0.11839 0  0.340625 0.1 0  0.334448 0.133793 0  0.329687 0.108539 0  0.346259 0.118491 0  0.360334 0.173636 0  0.327539 0.205033 0  0.132812 0.288712 0  0.362436 0.278836 0  0.368105 0.259418 0  0.4125 0.41 0  0.329687 0.324017 0  0.329687 0.292306 0  0.285938 0.318952 0  0.417187 0.338778 0  0.324481 0.14148 0  0.351562 0.106771 0  0.40625 0.1 0  0.341028 0.168342 0  0.319221 0.190479 0  0.335292 0.184501 0  0.305563 0.20794 0  0.220313 0.31948 0  0.132812 0.332772 0  0.0865876 0.311259 0  0.0598995 0.302453 0  0.0906541 0.343255 0  0.353543 0.255837 0  0.36574 0.237633 0  0.405007 0.254279 0  0.275795 0.352123 0  0.4125 0 0  0.35493 0.137394 0  0.366563 0.120618 0  0.35917 0.205246 0  0.198438 0.318952 0  0.0626109 0.263892 0  0.40625 0.3 0  0.354809 0.155936 0  0.386512 0.146872 0  0.373101 0.159939 0  0.384375 0.1 0  0.343394 0.19929 0  0.350682 0.185683 0  0.368101 0.189748 0  0.344016 0.221511 0  0.391108 0.213329 0  0.376279 0.204783 0  0.398843 0.182768 0  0.375804 0.222746 0  0.390665 0.196958 0  0.394004 0.23518 0  0.359883 0.222828 0  0.419908 0.204359 0  0.404243 0.204783 0  0.412615 0.224526 0  0.20625 0.41 0  0.165625 0.325257 0  0.0347982 0.244954 0  0.379558 0.247154 0  0.34165 0.147603 0  0.372264 0.136992 0  0.388988 0.121989 0  0.373437 0.108554 0  0.351562 0.31948 0  0.391367 0.16527 0  0.399572 0.223324 0  0.452011 0.227371 0  0.40877 0.239392 0  0.431491 0.237337 0  0.421224 0.250459 0  0.449619 0.262098 0  0.418865 0.276779 0  0.437063 0.252274 0  0.415673 0.263227 0  0.430988 0.266772 0  0.402767 0.273419 0  0.452967 0.244883 0  0.428125 0.3 0  0.408502 0.286186 0  0.384375 0.3 0  0.392267 0.285807 0  0.465927 0.219339 0  0.43489 0.283846 0  0.376424 0.286289 0  0.625 0.3 0  0.473533 0.205186 0  0.461713 0.255517 0  0.5375 0.3 0  0.465725 0.235405 0  0.44631 0.201425 0  0.471875 0.3 0  0.494307 0.227729 0  0.459448 0.206736 0  0.462294 0.180792 0  0.478933 0.227536 0  0.486793 0.21381 0  0.486322 0.251373 0  0.50065 0.215318 0  0.54005 0.175389 0  0.474633 0.189893 0  0.512916 0.208697 0  0.49531 0.199967 0  0.475889 0.175275 0  0.625 0.1 0  0.459311 0.153933 0  0.513645 0.242704 0  0.392892 0.248539 0  0.374815 0.271913 0  0.365974 0.14871 0  0.395312 0.109184 0  0.417061 0.123981 0  0.483196 0.277003 0  0.381967 0.179632 0  0.429898 0.219374 0  0.433473 0.206165 0  0.43149 0.181038 0  0.444208 0.215487 0  0.472985 0.247309 0  0.49375 0.3 0  0.475579 0.262714 0  0.49916 0.274293 0  0.501175 0.184809 0  0.514164 0.225681 0  0.543648 0.214977 0  0.5341630000000001 0.23481 0  0.527396 0.216171 0  0.5375 0.1 0  0.534548 0.202315 0  0.561545 0.192513 0  0.5494289999999999 0.201221 0  0.570923 0.218346 0  0.412582 0.149833 0  0.489327 0.264745 0  0.502439 0.254775 0  0.462391 0.271166 0  0.496775 0.241732 0  0.5294410000000001 0.268606 0  0.482812 0.291099 0  0.46879 0.285038 0  0.452663 0.284065 0  0.51789 0.257882 0  0.53408 0.252026 0  0.560142 0.243543 0  0.545708 0.243474 0  0.547532 0.229019 0  0.55282 0.265323 0  0.398971 0.153424 0  0.400349 0.135684 0  0.410135 0.168145 0  0.428823 0.161323 0  0.415266 0.183779 0  0.329687 0.0810483 0  0.395312 0.0612217 0  0.373437 0.318952 0  0.439062 0.324017 0  0.561816 0.229354 0  0.585029 0.239287 0  0.431827 0.139854 0  0.446796 0.168929 0  0.351562 0.07598340000000001 0  0.395313 0.318944 0  0.54337 0.150762 0  0.460937 0.31948 0  0.418412 0.137529 0  0.428125 0.1 0  0.442783 0.152332 0  0.450742 0.134294 0  0.373437 0.0805201 0  0.384383 0.342558 0  0.482812 0.318952 0  0.429239 0.127457 0  0.444274 0.117405 0  0.426548 0.113815 0  0.49375 0.1 0  0.488954 0.113984 0  0.457973 0.121842 0  0.471621 0.137346 0  0.515625 0.325257 0  0.48125 0.41 0  0.417187 0.07598340000000001 0  0.496363 0.126778 0  0.479043 0.155715 0  0.439062 0.0805201 0  0.481795 0.126919 0  0.471875 0.1 0  0.489227 0.142159 0  0.515625 0.1 0  0.520062 0.147117 0  0.501244 0.161791 0  0.505431 0.112984 0  0.505344 0.14029 0  0.526563 0.119081 0  0.5181750000000001 0.131908 0  0.539868 0.136937 0  0.460937 0.108383 0  0.474242 0.114415 0  0.460937 0.0810483 0  0.487841 0.167168 0  0.526563 0.0612217 0  0.526563 0.106406 0  0.537619 0.112743 0  0.58125 0.1 0  0.559375 0.1 0  0.482812 0.08105569999999999 0  0.471883 0.0587655 0  0.570312 0.129396 0  0.548437 0.07598340000000001 0  0.504687 0.08105569999999999 0  0.49375 0.0470127 0  0.570312 0.112663 0  0.592798 0.12103 0  0.553986 0.12103 0  0.570312 0.0805201 0  0.48125 0 0  0.114787 0.2 0  0.160769 0.284765 0  0.175816 0.288361 0  0.162602 0.116048 0  0.154687 0.07598340000000001 0  0.176562 0.0805201 0  0.0598995 0.147547 0  0.307812 0.109924 0  0.291279 0.117157 0  0.278491 0.112989 0  0.285937 0.07598340000000001 0  0.307812 0.0805201 0  0.296928 0.196743 0  0.318141 0.218507 0  0.330208 0.227509 0  0.301397 0.225668 0  0.302706 0.241401 0  0.292574 0.21424 0  0.282762 0.230935 0  0.284351 0.244775 0  0.269553 0.23261 0  0.278572 0.217242 0  0.226924 0.342606 0  0.446928 0.185396 0  0.515625 0.3 0  0.504687 0.288879 0  0.515256 0.276534 0  0.529479 0.285328 0  0.58125 0.3 0  0.541969 0.272936 0  0.559375 0.3 0  0.556796 0.282529 0  0.543473 0.287206 0  0.581429 0.267774 0  0.566728 0.271171 0  0.570869 0.255585 0  0.577404 0.283865 0  0.603125 0.3 0  0.597531 0.28035 0  0.570312 0.338778 0  0.592188 0.292492 0  0.603513 0.256094 0  0.614063 0.286265 0  0.610329 0.27064 0  0.632708 0.251285 0  0.657223 0.261594 0  0.618789 0.257807 0  0.614188 0.22987 0  0.630935 0.265614 
[...]
<PointData  Vectors="v"> 
	<DataArray  type="Float64"  Name="v"  NumberOfComponents="3" format="ascii">
0.0 0.0 0.0 0.0 0.0 0.0 0.0 0.0 0.0 0.0 0.0 0.0 0.7977348483040463 -0.19503571329048172 0.0 0.8415105166846201 0.2087338708686732 0.0 1.1704995819954906 -0.05893536598850668 0.0 1.1377677054119852 0.05765900301697677 0.0 0.0 0.0 0.0 0.0 0.0 0.0 0.0 0.0 0.0 0.0 0.0 0.0 0.0009123366559790768 0.0008486811275973492 0.0 0.0003445904405429311 0.0004480341192655448 0.0 0.0005062601110945456 0.0008973642694563107 0.0 0.0 0.0 0.0 0.0 0.0 0.0 0.0 0.0 0.0 0.0 0.0 0.0 0.0 0.0 0.0 0.0 0.0 0.0 0.0 0.0 0.0 0.0 0.0 0.0 0.0 0.0 0.0 0.0 0.0 0.0 0.0 0.0 0.0 0.0 0.0 0.0 0.0 0.0 0.0 0.0 0.0 0.0 0.0 0.0 0.0 0.0 0.0 0.0 0.0 0.0 0.0 0.0 0.0 0.0 0.0005054843524904967 -0.0008740301083822366 0.0 0.0003398877893884561 -0.00043407434287227284 0.0 0.0008928490784282265 -0.0008182030071536058 0.0 0.0 0.0 0.0 0.0 0.0 0.0 0.0 0.0 0.0 0.0 0.0 0.0 0.0 0.0 0.0 0.7625209038818258 -8.839997864432146e-05 0.0 1.27761409234052 0.08398818876641008 0.0 1.2684799743173683 -0.07618207722975139 0.0 0.0 0.0 0.0 1.355674881606145 -0.13228756383125903 0.0 1.3602307379353793 0.156465251835767 0.0 0.0 0.0 0.0 0.0 0.0 0.0 1.0 0.0 0.0 0.0 0.0 0.0 0.0 0.0 0.0 0.0 0.0 0.0 0.8440887411222592 -0.2307325391266614 0.0 1.1535431281940691 -0.34347381234114077 0.0 0.8651034848830703 0.23064788810304954 0.0 1.1682604521625637 0.35572157818575995 0.0 0.4293224313667133 -0.0027705015327556502 0.0 0.16775886390319455 0.06453232361953669 0.0 0.17225048586360844 -0.06075256314022729 0.0 -0.025107079466458248 -0.03677329262762221 0.0 -0.023508227336789287 0.03654682978090942 0.0 0.3353407712332463 -0.2787831953075486 0.0 0.8592116426728532 -0.6726873963597505 0.0 0.6410198783867732 -0.6874472325378539 0.0 1.2076144253796453 -0.6127456833368548 0.0 0.4179042629012977 -0.06933670399598593 0.0 0.3315006822744703 0.27007301377496473 0.0 0.6440979310144517 0.6707582494618362 0.0 1.1864534662541686 0.6168097991090232 0.0 0.4102818130153915 0.07404593679721688 0.0 1.3152443239002127 0.2631313724171599 0.0 0.3274559135407905 0.2542951092013689 0.0 1.304659119297619 -0.23978258095178012 0.0 0.3182872186521343 -0.23960199488746647 0.0 -0.03170787066267273 -0.01566420436256145 0.0 1.1263693073042282 -0.39838589106385874 0.0 1.0945585213346534 -0.7238552532069823 0.0 0.853531425267225 0.7722395156598563 0.0 1.1325121283954291 0.4011455224490829 0.0 0.7603505614689956 0.18839774174918184 0.0 0.11212047307200111 0.05191197605219441 0.0 0.7708700313497456 -0.18188382172701575 0.0 0.11450317698529884 -0.04827227045591569 0.0 -0.027720202587721385 0.01980970900294499 0.0 1.028940762188141 0.7202927728487353 0.0 0.443492027264742 0.5306226698392033 0.0 0.45997971633656226 0.1815223301191513 0.0 0.27414949156037843 0.07044576228364102 0.0 0.46654597210548765 -0.17444056452505252 0.0 0.27950175145633915 -0.06372088077545027 0.0 -0.07282801733360443 0.0032821755820004973 0.0 0.9672266995428148 0.31882402691569367 0.0 1.2625564649112664 0.3152324348385172 0.0 1.2472707399732441 0.2915454766731512 0.0 1.2370036876230968 -0.3069648736078253 0.0 1.250026581052301 -0.28092746710876865 0.0 1.2218782070176133 0.3337269166807275 0.0 1.2280500427999437 -0.3225745362346347 0.0 0.4437441384612059 -0.543666904513041 0.0 0.8032695794084562 -0.13841104302668458 0.0 0.6729609101939534 -0.41856795618471965 0.0 0.8787772319937693 0.5951640922277214 0.0 0.8006124616460708 0.1441295501527784 0.0 0.6777918447755172 0.42149516554772337 0.0 1.2949302820048276 -0.005892511626779197 0.0 0.29607044930377924 0.1461150499908355 0.0 0.2972791154255117 -0.1340396546941663 0.0 -0.052000466839738656 -0.011710366622588387 0.0 1.2665736686878202 0.4734540540876228 0.0 0.7711035079334007 0.12307720853658527 0.0 1.2627907599424388 -0.4728119898270867 0.0 0.7914841865944242 -0.11540233595395138 0.0 1.277068557020007 0.42019633539866497 0.0 1.255728064741752 0.4030456177178688 0.0 1.2733690053163993 -0.41385798380063715 0.0 1.2466916345141072 -0.3805305363614232 0.0 0.584747070289036 -0.1593252276980111 0.0 0.7978365028911586 -0.3307130926638442 0.0 1.011847959635044 0.6051553233693169 0.0 0.5928645099780059 0.15183290736291014 0.0 0.8139019766321899 0.33300148559627624 0.0 0.7482442771719845 0.0824180446871527 0.0 0.7848879715775597 -0.07234119881712746 0.0 0.05461871842283525 -0.020921509601196712 0.0 1.365577955892367 0.20940176532190177 0.0 0.9316635697684406 -0.32117075277616275 0.0 1.3465420012002896 -0.18929865147933578 0.0 0.411697316447475 0.09242863694213754 0.0 0.429453852440591 -0.07767955858842573 0.0 -0.05219691522620701 -0.0071321289237827965 0.0 1.0592097664070954 0.3554364752906977 0.0 0.9444927686219985 0.3926975895784557 0.0 0.9245301513134188 0.114202752304751 0.0 0.8266775579779613 -0.08659941928586753 0.0 1.3089126647282896 0.01777460389274212 0.0 1.029451746702182 -0.3443526145397184 0.0 1.0761712758488458 -0.56949387428108 0.0 0.9318403841064332 -0.388373288398031 0.0 0.9992138617302277 -0.4378500196502007 0.0 0.9343923869445374 -0.5419343521082794 0.0 0.8670134240858689 -0.40541268625216154 0.0 1.2755239172325852 0.23499211974152023 0.0 1.2737433802054217 -0.21929455603465606 0.0 0.8541790743449988 -0.23456817235022404 0.0 0.8806059519397452 -0.3088315649945294 0.0 0.8543155781523316 -0.29799659497706127 0.0 0.8532261709972975 -0.25530360237424454 0.0 0.8558775701999188 -0.2516097261409709 0.0 0.8980254009980132 -0.3183628671059865 0.0 1.3311696538438724 0.3179655278706671 0.0 1.0867233515459391 -0.0012458712264334757 0.0 1.3163918846710407 0.364585081822091 0.0 1.3234321964485978 -0.29592154392908787 0.0 0.0 0.0 0.0 0.0 0.0 0.0 1.3013582692602828 -0.3492740442995562 0.0 0.7155583795372393 -0.2661439273223923 0.0 0.8218093977234944 -0.2096150108403881 0.0 0.872424870573661 -0.10983741067138109 0.0 0.8638660398101382 -0.1627844702927622 0.0 0.9375 0.0 0.0 0.7500000000000001 0.0 0.0 0.7236757834949884 0.26652268562600157 0.0 0.8253948844519331 0.20147601251640557 0.0 0.7499999999999999 0.0 0.0 0.8710646903352192 0.12878032159474298 0.0 0.9300729488964844 0.04375780511910776 0.0 0.849379050220783 0.046091808594013725 0.0 -0.03248377417961946 -0.01050699412130103 0.0 0.09366280253341404 -0.01649724205325741 0.0 1.1165274743924216 0.5563914185570403 0.0 1.0204812905186877 0.47439587381081655 0.0 0.882241486110595 0.24669931687676744 0.0 1.2022636511493265 0.1406732228801694 0.0 1.3309447740104083 0.06114690564464624 0.0 0.35414609186644985 0.039338333221838225 0.0 1.3582914502425971 0.10439529152455063 0.0 0.7161445361999711 0.055120572352640985 0.0 1.1733339655677943 0.10180644337722508 0.0 0.5167370043941653 0.01706779051211012 0.0 0.4983463897987801 0.031245440091245122 0.0 0.07201250831008474 0.01458650901781552 0.0 0.9589098584309331 0.035845603508042244 0.0 0.2592548990355019 0.023348439466268012 0.0 0.16533488395935472 0.009766478602532883 0.0 0.26975127622731787 0.015809830510444503 0.0 0.6687413206221442 -0.0036067643548318307 0.0 0.5004308645637956 0.008220971341247869 0.0 1.31790533633479 0.020671266078690374 0.0 0.5449682739309003 0.06421161575559108 0.0 1.2324605903315564 -0.14169884034584337 0.0 0.20422532317780914 -0.036636911575855254 0.0 1.2075458297905235 0.1755538696575556 0.0 0.8841839388173862 0.18086839603560775 0.0 0.702894822684302 -0.16682853464776493 0.0 1.117359702257791 -0.09327730791359042 0.0 1.040646429599576 -0.22267941342448816 0.0 0.8651403341838454 -0.18168078848465277 0.0 0.8767432885330276 -0.02464084407299185 0.0 0.4416959600565642 -0.047248528458549245 0.0 0.29253004703043456 -0.0321151897666657 0.0 1.330993362509445 -0.04088952536572287 0.0 0.21052927481868713 -0.012526944240281519 0.0 1.3574058645703524 -0.08549709812862376 0.0 0.1935446985671927 -0.01810928026364322 0.0 0.5376528619915409 -0.0147396532201264 0.0 0.0006721638957644761 -0.010178130958239362 0.0 0.5743421128988099 -0.030562758385415074 0.0 0.8801674223552384 0.2984587705512424 0.0 0.8809036292043094 0.4121399856294734 0.0 0.886704386758164 0.27165898442808156 0.0 0.9136238815707685 0.1107204737984582 0.0 0.8664713742333303 0.22452093540891865 0.0 0.9060842169651652 0.30506018955139563 0.0 0.8585233451167676 0.23473827976547104 0.0 0.8033615539963472 0.18462890445188798 0.0 0.8682852374609351 0.16259664555962888 0.0 0.0 0.0 0.0 0.8425651364511058 0.17759834652404138 0.0 0.8719881981170206 0.17199093182788558 0.0 1.2152010441332814 0.051265658425850284 0.0 1.2398239468485155 0.06616020196623551 0.0 0.8923968784406211 0.014537587948935829 0.0 0.5960733894497894 -0.024738029188724486 0.0 1.2816926414095744 0.14875704565919698 0.0 0.719117708139036 -0.17272366371560213 0.0 1.1798877021480814 -0.16359409192599408 0.0 1.000678070233415 -0.018853977471578732 0.0 1.325664605604933 -0.00666371168172017 0.0 0.5875380691384849 0.0009696937730395113 0.0 1.2225130117892167 -0.011563463997953728 0.0 0.9855540079696529 0.010206137931646281 0.0 -0.0024239568714718718 -0.0059966484622388455 0.0 -0.09388857143652785 0.002229253686746677 0.0 0.9462699229503112 0.3423714831009012 0.0 0.8799177640294481 -0.017190078619176555 0.0 0.42950642747830575 -0.006929080360926826 0.0 0.0 0.0 0.0 1.3306781549030116 0.03883075997637035 0.0 1.2148228608316376 0.02615504885915842 0.0 1.3191447385120367 0.1161389065152704 0.0 1.2545381530371018 -0.04300220487682755 0.0 0.41555159465205355 -0.012912130077068852 0.0 1.230376575656999 0.011469509354016985 0.0 1.2932142161266185 0.058034833463524754 0.0 0.043174031383445666 -0.008777378648206822 0.0 -0.08019291403743438 -0.004162316758458553 0.0 -0.06543699215196211 -0.006476694540499294 0.0 -0.07879658804057443 0.004049233648119218 0.0 1.1877064451974573 0.2217299927823125 0.0 0.7791150506869766 0.1998542812552893 0.0 0.7790021155984882 0.15520068049168562 0.0 0.7869432778610084 0.10785688790931114 0.0 0.6219541657852583 0.11219209656061048 0.0 0.3549371957761222 0.002584893824005814 0.0 0.09523841218412124 0.005082123799128756 0.0 0.3667020315124167 -0.019446286961262833 0.0 1.0738500824573638 0.07826280820865347 0.0 0.0 0.0 0.0 0.5219207187821734 0.012452020721547776 0.0 0.933958792082827 0.03032357566877784 0.0 -0.10725602370306267 0.0016730611742478757 0.0 1.0989873626974955 0.2686247615625037 0.0 0.901658792045808 0.11329033982533827 0.0 1.2823706177859169 -0.0482396881075582 0.0 0.18876475621953423 -0.0026856630401197296 0.0 0.3608188399926256 0.01886993820594963 0.0 0.1450962786668276 0.0011583792088254914 0.0 1.3049923353712967 0.04054891447571885 0.0 -0.10394542702051723 -0.0006087548873256345 0.0 -0.07534093744957873 -0.005531090970268741 0.0 -0.09564379056065496 -0.003553197089732455 0.0 -0.04147229110531863 0.008114945199651006 0.0 -0.09353278778202227 0.0020762130392066773 0.0 -0.11378914017086814 0.0010301629802349861 0.0 -0.0648211646607828 -0.000981559043984903 0.0 -0.03938592895524741 0.004628736489196805 0.0 -0.11763542789837653 -0.000978797889161874 0.0 0.07712405248655531 -0.0009151689179793988 0.0 -0.036856561954309724 0.006757736580679312 0.0 -0.1211381816382291 -5.296179321011457e-05 0.0 -0.11975569103427823 0.0003547421851093654 0.0 -0.021937727433639725 -0.0013125518632894591 0.0 0.0 0.0 0.0 0.9484655840984137 0.2569529579959266 0.0 0.9526676843192395 0.04119572517796635 0.0 0.22666468217581187 -0.003246290397361308 0.0 0.31065117152566685 -0.003537414667330361 0.0 0.5462995035559819 0.021985028700855083 0.0 0.9143527177980729 0.04411450437193678 0.0 1.1941154859209082 0.035557430869707016 0.0 1.3557214255990773 0.015984155314613658 0.0 0.09006613907906359 0.003254152859799466 0.0 -0.034000797744335814 0.00120743947414807 0.0 0.024425415370352716 -0.010501811306616851 0.0 0.1372037561211024 -0.007572819143171276 0.0 0.12729429565776088 -0.012648341677818524 0.0 0.3172285700552843 -0.022182198107272576 0.0 0.5770254667782401 -0.04992167357933339 0.0 0.8613504209603327 -0.051388166382051854 0.0 0.3684089880129576 -0.030805990540699688 0.0 0.5570028321585604 -0.03482738543078361 0.0 0.6522878182775361 -0.04671475561348749 0.0 0.7720977390136526 -0.040034121139979756 0.0 0.2608368531270285 -0.027171520426251667 0.0 1.2749362322179671 -0.06348197257228705 0.0 1.0605068878339905 -0.050766259721221785 0.0 1.2886597646663063 -0.027837668665003274 0.0 1.0510892469783149 -0.03854799661675947 0.0 -0.04104932064678637 -0.007718240841418567 0.0 1.0291203073628479 -0.06587759464474433 0.0 1.0621802955849875 -0.029026915730313362 0.0 1.228892118219855 -0.101902350037965 0.0 -0.10699903746404381 -0.001109878975039826 0.0 0.4621580754381206 -0.044701591728015536 0.0 1.2534843400614197 -0.1042589303811526 0.0 0.1332479560261923 -0.020669705782875112 0.0 -0.12014794789990782 0.0002077172235597233 0.0 1.2636545480874826 -0.08628305014240803 0.0 0.06477270749577535 -0.01993632568594028 0.0 -0.1096473662182913 -0.0013429429947251954 0.0 -0.024423756992341793 0.01115763336393623 0.0 0.047364768371850864 -0.016499761509669014 0.0 -0.0659732753482005 -0.006869994063013513 0.0 0.4202717220640554 -0.0478729041443286 0.0 -0.045996020667823906 -0.009611626073184375 0.0 0.11429201176844682 0.03155735449616338 0.0 -0.08057859958954082 0.006892912182302274 0.0 -0.07119101881027733 -0.00504799567202667 0.0 -0.09776049657162504 0.001951936423618201 0.0 0.041242826679653004 0.018375603951229984 0.0 1.2180266035186391 0.1040800773339731 0.0 0.32944528692262315 0.038637470811297404 0.0 0.3060514209682466 -0.043501472086466986 0.0 0.25751869663945587 -0.00910946422707689 0.0 0.7100579333787622 -0.01948990774253435 0.0 0.30812638618635135 0.006527239379363833 0.0 1.178651843816904 0.053975075795023475 0.0 0.8909496002536016 0.06202649885747695 0.0 0.9311730388826309 -0.08171578410939798 0.0 -0.04575093857558854 -0.0031384820003307547 0.0 -0.05705981933515248 -0.0026141552877729226 0.0 -0.11719100760798178 -0.0005354703797862444 0.0 -0.043783058639705795 0.0052129279494407535 0.0 -0.07772949706986026 -0.003254301032982326 0.0 0.32756953538588435 -0.03747256668482174 0.0 1.2603393296665693 -0.09230939794678716 0.0 0.6279475945473935 -0.06057458427327284 0.0 0.8955099924015585 -0.08462001605081108 0.0 -0.027121400962212244 0.014112499462067692 0.0 0.06235986459756228 -0.021644902227020923 0.0 -0.0059641495491496825 -0.013607980256303082 0.0 0.20976981235766934 -0.037316185429862994 0.0 -0.014953416974953228 -0.013353513971626603 0.0 1.2552260826584256 0.1075418685522224 0.0 -0.06515941710630785 0.00031167147555017494 0.0 -0.013076459325716107 0.012113255276840753 0.0 -0.04971447898135445 0.0015289758575023945 0.0 0.05598370720416918 -0.020360123875241054 0.0 0.33905543334349947 0.025694988279392195 0.0 0.6898389236914141 -0.06896197884315731 0.0 0.5089215744914748 -0.05863511379505372 0.0 0.7888340483186933 -0.06719793859056662 0.0 0.2661172299388744 -0.03720817407329823 0.0 0.8209569808551768 -0.08650890969439058 0.0 1.1685361799001488 -0.08981110853088808 0.0 1.069516032698971 -0.08257225013205662 0.0 1.0427784020151134 -0.07423224343496848 0.0 0.5936479157315767 -0.0683174591562907 0.0 0.5050568747279017 -0.06319416843258058 0.0 0.3921841730122441 -0.05600645809784851 0.0 0.367529019417147 -0.05275931490648058 0.0 0.14563680806823576 -0.03167042516629442 0.0 0.7884233980526469 -0.08691377714448179 0.0 0.26145732904684144 0.01570645242021545 0.0 0.6087083279714033 0.038899265029545334 0.0 0.06884049922953059 0.007118960250179601 0.0 0.17333935476028592 0.01888702049938665 0.0 -0.06847749014007484 0.0012983070636156692 0.0 1.3346834847011746 -0.023318332819169542 0.0 1.2198347318312368 0.04243506416834082 0.0 1.3572734897301986 -0.010764853863159266 0.0 1.328850388964205 -0.06201629874840184 0.0 0.17042020467845662 -0.03453112410830904 0.0 0.35840573135559156 -0.053170904225522564 0.0 0.5605220712957795 0.04792562011954686 0.0 0.08898167910757233 0.016665185613541186 0.0 1.3102356400329231 0.005295332979621474 0.0 1.350224357502672 -0.03165466654542832 0.0 0.5193596429077421 0.06974922147417435 0.0 1.329185468715174 -0.07542501517808876 0.0 0.590405067015513 0.044218105968218305 0.0 1.2843965060939897 0.07317188529315029 0.0 0.3345097832922623 0.03469657671124022 0.0 0.7058881585090608 0.06497797863596738 0.0 1.3367118883210753 0.025442951534946794 0.0 1.2331463308942194 -0.02295216148733861 0.0 1.3200006907166129 -0.08535674356030322 0.0 0.8267352779319758 0.06264606429809627 0.0 1.0496543300311652 0.0800992068616132 0.0 1.108823886934065 0.07342213882233938 0.0 1.268691834199857 0.09985785230854285 0.0 1.1305123394621133 0.0985236167834686 0.0 0.9765970163973207 0.08243555638888096 0.0 0.6705746049395133 0.06847816831140889 0.0 1.2756689851558944 -0.08860140271853904 0.0 0.0 0.0 0.0 1.309947342552134 0.05896589016275977 0.0 0.9187787593734558 0.09083760521536487 0.0 0.327075076249183 0.04308447626326181 0.0 1.3178650545674988 0.07281128131651783 0.0 0.901212177251526 0.0864820878245783 0.0 1.272707013325416 0.09261396226040242 0.0 0.5998893104698406 0.06741651971838251 0.0 1.2638594021957679 0.10498518329625256 0.0 0.5509380846997762 0.06939126414068165 0.0 0.2576767732250291 0.04138862801381448 0.0 1.148527261214766 0.10291591512749944 0.0 0.6632144075486799 0.07589612189565668 0.0 1.0741703491663965 0.10451020953824045 0.0 0.8463581910045169 0.09177442050959865 0.0 0.777349774337808 0.08998610486964938 0.0 1.197504263801857 0.08978454641850206 0.0 1.1180012777792108 0.0929565870615323 0.0 1.3082437644547362 0.08312372241195137 0.0 0.1574589825172035 0.029851669058697836 0.0 1.1540523140148848 0.08046923847684746 0.0 1.2183653419331628 0.1076057129432457 0.0 1.1590127777609474 0.10894515387217618 0.0 1.2353986597476685 0.10844914281743129 0.0 1.2453637787161516 0.10953524351331193 0.0 1.2931026899442528 0.08844284095544078 0.0 1.184924537777367 0.06957379465809833 0.0 0.9465237905721288 0.10275347855815375 0.0 1.2310508983685706 0.09386273421089393 0.0 1.2809237883898046 0.09209190398701206 0.0 1.0470697083959055 0.06666556653040658 0.0 1.1639830067014392 0.11084844457568356 0.0 1.0808260607629099 0.10920277883495144 0.0 1.0613775469193902 0.10739509660625382 0.0 1.2341650404409248 0.09815536397958115 0.0 0.0 0.0 0.0 0.6456366008550654 -0.00441386469057008 0.0 1.0793694057384007 0.4354877694733606 0.0 1.1685793390986499 0.423861863249979 0.0 1.0839754961804857 -0.42604452923740255 0.0 0.8675529175829353 -0.22599563822977548 0.0 0.9809089376110138 -0.2545026696819169 0.0 0.8935863031417502 -0.08401820543009565 0.0 1.2249882920956716 -0.05148572807050731 0.0 1.0835641907867606 -0.06320761299432852 0.0 1.200876419743535 -0.10372360407497613 0.0 1.2670235028279315 -0.08368836565685717 0.0 1.3173284406433268 -0.052628916725616134 0.0 -0.08076486861115596 -0.0014837839639789499 0.0 -0.04806805643911842 0.00874163202925545 0.0 0.0029487584505785733 0.011185958488066685 0.0 0.00302292489433328 0.013120176580819378 0.0 0.14900420180224022 0.027964866692709728 0.0 -0.05467026501918186 0.009215634368560084 0.0 0.06361281602308633 0.022922007614583316 0.0 0.2192021205939771 0.03830385924715298 0.0 0.08753838720252544 0.039002017590946216 0.0 -0.03369101100688491 0.015818291044795204 0.0 1.0364727511791918 0.1622991486183314 0.0 -0.06818544499262127 0.005698552273892216 0.0 1.2572020097718737 -0.09926367677990193 0.0 1.1444867619389967 -0.09713154416795321 0.0 0.9533814727681283 -0.09124338815964933 0.0 1.1067623513763363 -0.10106129112563728 0.0 1.2422056020719259 -0.10529975467275567 0.0 0.9160462266541493 -0.09411229225950274 0.0 1.2497400101241039 -0.10519039157742748 0.0 1.0807085903938665 -0.10354642759386787 0.0 1.135872943758713 -0.1036160761481548 0.0 0.8670049662098899 -0.09350836853890566 0.0 0.9104192012623039 -0.09603977485367311 0.0 0.6294942170784458 -0.07636747051404957 0.0 1.1074147251838713 -0.10615590437887411 0.0 1.2359321643820642 -0.10485897782414977 0.0 1.0720908096436712 -0.10382252110830825 0.0 1.1702916373163752 -0.08450312299186619 0.0 1.1960899753371166 -0.10730430763642086 0.0 0.6856308625031015 -0.08024396422481704 0.0 1.1439496855676703 -0.10438861559106925 0.0 0.9425498632774001 -0.097051301912