<?xml version="1.0"?>
<VTKFile type="UnstructuredGrid"  version="0.1"  >
<UnstructuredGrid>
<Piece  NumberOfPoints="1289" NumberOfCells="2413">
<Points>
<DataArray  type="Float64"  NumberOfComponents="3"  format="ascii">0 0 0  0 0.41 0  2.2 0.41 0  2.2 0 0  0.1 0.1 0  0.1 0.3 0  0.8 0.3 0  0.8 0.1 0  0.25 0.2 0  0.248976 0.210065 0  0.245948 0.219718 0  0.241038 0.228563 0  0.234448 0.23624 0  0.226448 0.242432 0  0.217365 0.246888 0  0.207571 0.249423 0  0.197468 0.249936 0  0.187467 0.248404 0  0.17798 0.24489 0  0.169395 0.239539 0  0.162062 0.232569 0  0.156283 0.224265 0  0.152293 0.214968 0  0.150257 0.205058 0  0.150257 0.194942 0  0.152293 0.185032 0  0.156283 0.175735 0  0.162062 0.167431 0  0.169395 0.160461 0  0.17798 0.15511 0  0.187467 0.151596 0  0.197468 0.150064 0  0.207571 0.150577 0  0.217365 0.153112 0  0.226448 0.157568 0  0.234448 0.16376 0  0.241038 0.171437 0  0.245948 0.180282 0  0.248976 0.189935 0  1.1 0 0  1.1 0.41 0  0.1 0.2 0  0.45 0.1 0  0.45 0.3 0  0.55 0 0  0.275 0.1 0  0.275 0.3 0  0.275 0 0  0.55 0.41 0  0 0.205 0  0.825 0 0  0.825 0.41 0  0.275 0.41 0  0.1 0.15 0  0.1875 0.1 0  0.1 0.25 0  0.1875 0.3 0  0.132322 0.2 0  0.241426 0.253518 0  0.241426 0.146482 0  0.264574 0.17974 0  0.264574 0.22026 0  0.138434 0.187348 0  0.153372 0.150948 0  0.148413 0.164094 0  0.176495 0.136535 0  0.22768 0.143571 0  0.138434 0.212652 0  0.148413 0.235906 0  0.176495 0.263465 0  0.22768 0.256429 0  0.23125 0.3 0  0.24769 0.24094 0  0.23125 0.1 0  0.24769 0.15906 0  0.26253 0.193641 0  0.190482 0.137872 0  0.166753 0.146661 0  0.157737 0.244461 0  0.190482 0.262128 0  0.203107 0.261264 0  0.253635 0.22977 0  0.203107 0.138736 0  0.253635 0.17023 0  0.261028 0.206206 0  0.167707 0.251809 0  0.143629 0.224191 0  0.215302 0.2591 0  0.270465 0.245894 0  0.215302 0.1409 0  0.270465 0.154106 0  0.284052 0.202587 0  0.14375 0.3 0  0.209375 0.3 0  0.225966 0.278501 0  0.209375 0.1 0  0.225966 0.121499 0  0.211613 0.273759 0  0.211613 0.126241 0  0.143629 0.175809 0  0.1 0.175 0  0.133484 0.164832 0  0.144491 0.249539 0  0.1 0.225 0  0.133484 0.235168 0  0.3625 0.3 0  0.25691 0.253381 0  0.25691 0.146619 0  0.277205 0.188698 0  0.184724 0.275712 0  0.237372 0.268285 0  0.184724 0.124288 0  0.237372 0.131715 0  0.197578 0.273149 0  0.193656 0.286994 0  0.197578 0.126851 0  0.193656 0.113006 0  0.122953 0.187671 0  0.118362 0.153758 0  0.155372 0.258107 0  0.122953 0.212329 0  0.118362 0.246242 0  0.276394 0.27264 0  0.276394 0.12736 0  0.280965 0.170013 0  0.253125 0.3 0  0.14375 0.1 0  0.253125 0.1 0  0.269489 0.26014 0  0.269489 0.13986 0  0.303639 0.184297 0  0.165625 0.3 0  0.134742 0.273113 0  0.257831 0.274737 0  0.255279 0.128499 0  0.3625 0.1 0  0.165625 0.1 0  0.162031 0.132368 0  0.134955 0.126405 0  0.149334 0.125568 0  0.142936 0.139597 0  0.12695 0.140259 0  0.242514 0.285501 0  0.242514 0.114499 0  0.1 0.125 0  0.117483 0.12555 0  0.11154 0.139776 0  0.121875 0.1 0  0.109143 0.1125 0  0.126805 0.114 0  0.220313 0.29129 0  0.351562 0.287369 0  0.207222 0.2866 0  0.220312 0.10871 0  0.1375 0 0  0.20625 0 0  0.207222 0.1134 0  0.11722 0.17118 0  0.1 0.1625 0  0.0778409 0.16875 0  0.0862762 0.15625 0  0 0.15375 0  0 0.1025 0  0.11722 0.22882 0  0.1 0.2375 0  0 0.3075 0  0.0862762 0.23125 0  0.0598995 0.222547 0  0.0860223 0.2125 0  0.289584 0.181469 0  0.300267 0.16446 0  0.163832 0.269071 0  0.149597 0.273325 0  0.1 0.275 0  0.268498 0.285953 0  0.31875 0.3 0  0.294154 0.254672 0  0.296875 0.3 0  0.293558 0.271845 0  0.285095 0.286799 0  0.324298 0.264316 0  0.307866 0.263745 0  0.317093 0.234901 0  0.315485 0.281219 0  0.316547 0.250625 0  0.344693 0.243731 0  0.331592 0.251147 0  0.35129 0.270663 0  0.338689 0.263683 0  0.340625 0.3 0  0.249849 0.264383 0  0.265097 0.11422 0  0.284688 0.156136 0  0.242188 0.324017 0  0.0856613 0.2625 0  0.132812 0.0612217 0  0.264062 0.0612217 0  0.198437 0.07598340000000001 0  0.0860223 0.1375 0  0.0794526 0.191089 0  0.285228 0.140397 0  0.298655 0.148737 0  0.31875 0.1 0  0.327335 0.15374 0  0.296875 0.1 0  0.312289 0.155283 0  0.313348 0.135607 0  0.321802 0.173916 0  0.298433 0.134116 0  0.112124 0.2625 0  0.127526 0.259083 0  0.121875 0.3 0  0.0682687 0.241503 0  0.1 0.2875 0  0.117762 0.28125 0  0.107813 0.3 0  0.103906 0.313849 0  0.0778409 0.28125 0  0.1375 0.41 0  0.0862762 0.29375 0  0.08886860000000001 0.24375 0  0.307812 0.338778 0  0.307812 0.292227 0  0.33216 0.279164 0  0.387888 0.266414 0  0.264063 0.31948 0  0.110937 0.07598340000000001 0  0.242188 0.07598340000000001 0  0.319914 0.11839 0  0.340625 0.1 0  0.334448 0.133793 0  0.329687 0.108539 0  0.346259 0.118491 0  0.360334 0.173636 0  0.327539 0.205033 0  0.132812 0.288712 0  0.362436 0.278836 0  0.368105 0.259418 0  0.4125 0.41 0  0.329687 0.324017 0  0.329687 0.292306 0  0.285938 0.318952 0  0.417187 0.338778 0  0.324481 0.14148 0  0.351562 0.106771 0  0.40625 0.1 0  0.341028 0.168342 0  0.319221 0.190479 0  0.335292 0.184501 0  0.305563 0.20794 0  0.220313 0.31948 0  0.132812 0.332772 0  0.0865876 0.311259 0  0.0598995 0.302453 0  0.0906541 0.343255 0  0.353543 0.255837 0  0.36574 0.237633 0  0.405007 0.254279 0  0.275795 0.352123 0  0.4125 0 0  0.35493 0.137394 0  0.366563 0.120618 0  0.35917 0.205246 0  0.198438 0.318952 0  0.0626109 0.263892 0  0.40625 0.3 0  0.354809 0.155936 0  0.386512 0.146872 0  0.373101 0.159939 0  0.384375 0.1 0  0.343394 0.19929 0  0.350682 0.185683 0  0.368101 0.189748 0  0.344016 0.221511 0  0.391108 0.213329 0  0.376279 0.204783 0  0.398843 0.182768 0  0.375804 0.222746 0  0.390665 0.196958 0  0.394004 0.23518 0  0.359883 0.222828 0  0.419908 0.204359 0  0.404243 0.204783 0  0.412615 0.224526 0  0.20625 0.41 0  0.165625 0.325257 0  0.0347982 0.244954 0  0.379558 0.247154 0  0.34165 0.147603 0  0.372264 0.136992 0  0.388988 0.121989 0  0.373437 0.108554 0  0.351562 0.31948 0  0.391367 0.16527 0  0.399572 0.223324 0  0.452011 0.227371 0  0.40877 0.239392 0  0.431491 0.237337 0  0.421224 0.250459 0  0.449619 0.262098 0  0.418865 0.276779 0  0.437063 0.252274 0  0.415673 0.263227 0  0.430988 0.266772 0  0.402767 0.273419 0  0.452967 0.244883 0  0.428125 0.3 0  0.408502 0.286186 0  0.384375 0.3 0  0.392267 0.285807 0  0.465927 0.219339 0  0.43489 0.283846 0  0.376424 0.286289 0  0.625 0.3 0  0.473533 0.205186 0  0.461713 0.255517 0  0.5375 0.3 0  0.465725 0.235405 0  0.44631 0.201425 0  0.471875 0.3 0  0.494307 0.227729 0  0.459448 0.206736 0  0.462294 0.180792 0  0.478933 0.227536 0  0.486793 0.21381 0  0.486322 0.251373 0  0.50065 0.215318 0  0.54005 0.175389 0  0.474633 0.189893 0  0.512916 0.208697 0  0.49531 0.199967 0  0.475889 0.175275 0  0.625 0.1 0  0.459311 0.153933 0  0.513645 0.242704 0  0.392892 0.248539 0  0.374815 0.271913 0  0.365974 0.14871 0  0.395312 0.109184 0  0.417061 0.123981 0  0.483196 0.277003 0  0.381967 0.179632 0  0.429898 0.219374 0  0.433473 0.206165 0  0.43149 0.181038 0  0.444208 0.215487 0  0.472985 0.247309 0  0.49375 0.3 0  0.475579 0.262714 0  0.49916 0.274293 0  0.501175 0.184809 0  0.514164 0.225681 0  0.543648 0.214977 0  0.5341630000000001 0.23481 0  0.527396 0.216171 0  0.5375 0.1 0  0.534548 0.202315 0  0.561545 0.192513 0  0.5494289999999999 0.201221 0  0.570923 0.218346 0  0.412582 0.149833 0  0.489327 0.264745 0  0.502439 0.254775 0  0.462391 0.271166 0  0.496775 0.241732 0  0.5294410000000001 0.268606 0  0.482812 0.291099 0  0.46879 0.285038 0  0.452663 0.284065 0  0.51789 0.257882 0  0.53408 0.252026 0  0.560142 0.243543 0  0.545708 0.243474 0  0.547532 0.229019 0  0.55282 0.265323 0  0.398971 0.153424 0  0.400349 0.135684 0  0.410135 0.168145 0  0.428823 0.161323 0  0.415266 0.183779 0  0.329687 0.0810483 0  0.395312 0.0612217 0  0.373437 0.318952 0  0.439062 0.324017 0  0.561816 0.229354 0  0.585029 0.239287 0  0.431827 0.139854 0  0.446796 0.168929 0  0.351562 0.07598340000000001 0  0.395313 0.318944 0  0.54337 0.150762 0  0.460937 0.31948 0  0.418412 0.137529 0  0.428125 0.1 0  0.442783 0.152332 0  0.450742 0.134294 0  0.373437 0.0805201 0  0.384383 0.342558 0  0.482812 0.318952 0  0.429239 0.127457 0  0.444274 0.117405 0  0.426548 0.113815 0  0.49375 0.1 0  0.488954 0.113984 0  0.457973 0.121842 0  0.471621 0.137346 0  0.515625 0.325257 0  0.48125 0.41 0  0.417187 0.07598340000000001 0  0.496363 0.126778 0  0.479043 0.155715 0  0.439062 0.0805201 0  0.481795 0.126919 0  0.471875 0.1 0  0.489227 0.142159 0  0.515625 0.1 0  0.520062 0.147117 0  0.501244 0.161791 0  0.505431 0.112984 0  0.505344 0.14029 0  0.526563 0.119081 0  0.5181750000000001 0.131908 0  0.539868 0.136937 0  0.460937 0.108383 0  0.474242 0.114415 0  0.460937 0.0810483 0  0.487841 0.167168 0  0.526563 0.0612217 0  0.526563 0.106406 0  0.537619 0.112743 0  0.58125 0.1 0  0.559375 0.1 0  0.482812 0.08105569999999999 0  0.471883 0.0587655 0  0.570312 0.129396 0  0.548437 0.07598340000000001 0  0.504687 0.08105569999999999 0  0.49375 0.0470127 0  0.570312 0.112663 0  0.592798 0.12103 0  0.553986 0.12103 0  0.570312 0.0805201 0  0.48125 0 0  0.114787 0.2 0  0.160769 0.284765 0  0.175816 0.288361 0  0.162602 0.116048 0  0.154687 0.07598340000000001 0  0.176562 0.0805201 0  0.0598995 0.147547 0  0.307812 0.109924 0  0.291279 0.117157 0  0.278491 0.112989 0  0.285937 0.07598340000000001 0  0.307812 0.0805201 0  0.296928 0.196743 0  0.318141 0.218507 0  0.330208 0.227509 0  0.301397 0.225668 0  0.302706 0.241401 0  0.292574 0.21424 0  0.282762 0.230935 0  0.284351 0.244775 0  0.269553 0.23261 0  0.278572 0.217242 0  0.226924 0.342606 0  0.446928 0.185396 0  0.515625 0.3 0  0.504687 0.288879 0  0.515256 0.276534 0  0.529479 0.285328 0  0.58125 0.3 0  0.541969 0.272936 0  0.559375 0.3 0  0.556796 0.282529 0  0.543473 0.287206 0  0.581429 0.267774 0  0.566728 0.271171 0  0.570869 0.255585 0  0.577404 0.283865 0  0.603125 0.3 0  0.597531 0.28035 0  0.570312 0.338778 0  0.592188 0.292492 0  0.603513 0.256094 0  0.614063 0.286265 0  0.610329 0.27064 0  0.632708 0.251285 0  0.657223 0.261594 0  0.618789 0.257807 0  0.614188 0.22987 0  0.630935 0.265614 
[...]
<PointData  Vectors="v"> 
	<DataArray  type="Float64"  Name="v"  NumberOfComponents="3" format="ascii">
0.0 0.0 0.0 0.0 0.0 0.0 0.0 0.0 0.0 0.0 0.0 0.0 0.7962473355489174 -0.19599816829943767 0.0 0.8403942211923262 0.20772067100190145 0.0 1.1704916829475953 -0.060391830178237974 0.0 1.1389707593700509 0.058677950671820266 0.0 0.0 0.0 0.0 0.0 0.0 0.0 0.0 0.0 0.0 0.0 0.0 0.0 0.0008775702306178374 0.0008176174287105198 0.0 0.0004158677983935936 0.000582230111578381 0.0 0.0005118298387963809 0.0008977578416176945 0.0 0.0 0.0 0.0 0.0 0.0 0.0 0.0 0.0 0.0 0.0 0.0 0.0 0.0 0.0 0.0 0.0 0.0 0.0 0.0 0.0 0.0 0.0 0.0 0.0 0.0 0.0 0.0 0.0 0.0 0.0 0.0 0.0 0.0 0.0 0.0 0.0 0.0 0.0 0.0 0.0 0.0 0.0 0.0 0.0 0.0 0.0 0.0 0.0 0.0 0.0 0.0 0.0 0.0 0.0 0.00043227645189683115 -0.0007514676209093045 0.0 0.00014050635456107233 -0.0001063509550442259 0.0 0.0008495881239617211 -0.0007847266023776144 0.0 0.0 0.0 0.0 0.0 0.0 0.0 0.0 0.0 0.0 0.0 0.0 0.0 0.0 0.0 0.0 0.7613349326600705 -0.0013367435617429285 0.0 1.2752903152645907 0.08364258725395955 0.0 1.2659829881026012 -0.07629650250708604 0.0 0.0 0.0 0.0 1.3536037867498143 -0.13310759138750355 0.0 1.3580172186788104 0.15480667790902292 0.0 0.0 0.0 0.0 0.0 0.0 0.0 1.0 0.0 0.0 0.0 0.0 0.0 0.0 0.0 0.0 0.0 0.0 0.0 0.8426145711414438 -0.23192540033930947 0.0 1.1514346603143222 -0.3442875586454994 0.0 0.8637783142962819 0.22925368248810382 0.0 1.1662559974857958 0.35396565549316134 0.0 0.42824197607027736 -0.004035144102152352 0.0 0.16554569952783366 0.06191328945984486 0.0 0.170105961343835 -0.06069478913702353 0.0 -0.028612351239602367 -0.03933960950802768 0.0 -0.027051301854043863 0.0374160194896538 0.0 0.3343958547469781 -0.2799183743477969 0.0 0.8579498739072965 -0.6735105691274978 0.0 0.6400411407354399 -0.6882218851398298 0.0 1.2062369166697435 -0.6133166928508278 0.0 0.4158645120063479 -0.06872556765125655 0.0 0.3304425215121919 0.268678574566541 0.0 0.6428244401507213 0.6692716841273414 0.0 1.1851983750900357 0.6153283269611564 0.0 0.4084340816645073 0.07113991639369849 0.0 1.313105192715594 0.2606881343679285 0.0 0.3359677535453396 0.2610470654162204 0.0 1.302576045421052 -0.24044836643764364 0.0 0.3241256144247515 -0.2464160998218723 0.0 -0.034580010717951144 -0.01744121663228602 0.0 1.1250532255803962 -0.39877375679650856 0.0 1.093293661900994 -0.7243915797715329 0.0 0.8520626576967113 0.7707109199277193 0.0 1.131577557508717 0.39954352689591 0.0 0.7597168564412698 0.18597795770828113 0.0 0.11091149416039717 0.0532298619562553 0.0 0.7695519964292513 -0.18190614639832464 0.0 0.11301622612978955 -0.0513646874002708 0.0 -0.030605848946067743 0.019847135550714254 0.0 1.027549883220029 0.7188680033310497 0.0 0.44236779400177667 0.5291355637393195 0.0 0.45826427287753246 0.17763936262712549 0.0 0.2812644801585822 0.07074266336569311 0.0 0.4643762080336875 -0.17348137669835917 0.0 0.28488010985495954 -0.06605429717750005 0.0 -0.0771479445761433 0.002086169986929737 0.0 0.9654620809133493 0.3173433365190638 0.0 1.2605041103121415 0.31301410724361106 0.0 1.2453174527371789 0.2886015034246008 0.0 1.234837503803216 -0.3075795232076165 0.0 1.2479042077390863 -0.28085291599940226 0.0 1.2204341255628743 0.3308698887705626 0.0 1.226315641545685 -0.322545234991266 0.0 0.4429251790815495 -0.544647806612309 0.0 0.8020310506220948 -0.13967703028939712 0.0 0.6715428529232431 -0.4197587628293735 0.0 0.877368893126923 0.5937933287623787 0.0 0.7993050581334022 0.14275236527500354 0.0 0.6764879042423644 0.4200880151770446 0.0 1.292294585819074 -0.0070668842425943785 0.0 0.29822953740512037 0.14825861795038947 0.0 0.29825288791738663 -0.1375149877197894 0.0 -0.055925796918893766 -0.013168300734026315 0.0 1.265121827441952 0.4717015936865545 0.0 0.7688727831124984 0.12036329983377296 0.0 1.2612067629501618 -0.4732537716374913 0.0 0.7890072091651269 -0.11517302739881564 0.0 1.2757338689761348 0.41793811399185654 0.0 1.2540172808038441 0.40098741096480833 0.0 1.2717039186891532 -0.41417746748542567 0.0 1.2447514732646052 -0.38105468486397864 0.0 0.5835444921916175 -0.16058852910945384 0.0 0.7964609189494509 -0.3318527944424937 0.0 1.0104452248781957 0.6037476100449273 0.0 0.5917507152312461 0.15054731957991077 0.0 0.8125583314998837 0.3316494849941856 0.0 0.7464996383077672 0.08126003581140875 0.0 0.7831207286670087 -0.07350280727108453 0.0 0.05390989625861222 -0.02195297749928026 0.0 1.3632359301050179 0.20729304228804576 0.0 0.9298512231987701 -0.3222273995106945 0.0 1.344434863213455 -0.1900787330459772 0.0 0.41335730847517316 0.09279386157656369 0.0 0.42991232194628315 -0.07976336554327289 0.0 -0.055128205946670644 -0.008113034240197535 0.0 1.0573450544947456 0.3539113887296743 0.0 0.9431571101069354 0.3914162306351861 0.0 0.922436522053039 0.11243979949697311 0.0 0.8239956326722317 -0.08675721301145947 0.0 1.3073624663987877 0.016948128531697304 0.0 1.0275451856350208 -0.34517712618997454 0.0 1.0745552046183935 -0.5703407547947554 0.0 0.9301698579620918 -0.38941403594693125 0.0 0.9975138913967894 -0.43866087337331355 0.0 0.9329786444426111 -0.5428620818103309 0.0 0.8655646241085518 -0.40653303755083225 0.0 1.27338331984889 0.23268740094562596 0.0 1.2714443015310828 -0.21949670398824958 0.0 0.8526740534260847 -0.23565405630749922 0.0 0.8790766790252373 -0.3099750760380649 0.0 0.8529197667822259 -0.2990757174602705 0.0 0.8514301277870219 -0.25640939690521675 0.0 0.8542320557589125 -0.25279565659147424 0.0 0.8963016453619173 -0.3194797414203202 0.0 1.3291843750330428 0.3153452250247278 0.0 1.0846693355753754 -0.002537119469917275 0.0 1.3146125498259218 0.3621662266495636 0.0 1.321314641391114 -0.2959080237653777 0.0 0.0 0.0 0.0 0.0 0.0 0.0 1.2994759476567561 -0.34936081978905276 0.0 0.7142637054666215 -0.26736772492846533 0.0 0.8204081016540467 -0.21080411176632596 0.0 0.8711801351681475 -0.11078915289840674 0.0 0.8624532895614034 -0.16380007116239617 0.0 0.9375 0.0 0.0 0.7500000000000001 0.0 0.0 0.7224736841090251 0.2652528732085754 0.0 0.8240365552161713 0.20009849437091368 0.0 0.7499999999999999 0.0 0.0 0.8697168217047804 0.12778083999169476 0.0 0.9287129379735269 0.04280609556791626 0.0 0.848115330355547 0.04502641947271761 0.0 -0.03546467904230205 -0.01149467885003202 0.0 0.09434592635488874 -0.017252068807146106 0.0 1.1150381763953496 0.5547143672374472 0.0 1.0190192343303508 0.4730877382819987 0.0 0.8809661945781015 0.24543048196967207 0.0 1.2000981663967256 0.13910089377879178 0.0 1.328728438910691 0.05976968724343355 0.0 0.35890925847122507 0.038285440878175585 0.0 1.3560405747226205 0.10284122334638393 0.0 0.7159685693126615 0.054131301207479963 0.0 1.171393020088501 0.1003087246968794 0.0 0.5182826751301165 0.01553581143378504 0.0 0.5003147109863564 0.029985614112580338 0.0 0.07275534978490827 0.011756913053007526 0.0 0.9574276929201887 0.03444650659736908 0.0 0.2620825458254522 0.021326504478699052 0.0 0.16661259135741252 0.007106492394742863 0.0 0.2720245609160378 0.013570822628344185 0.0 0.6686172056910406 -0.005154105545381191 0.0 0.5015673733340498 0.006488425590203297 0.0 1.3154927821623736 0.019275744168880574 0.0 0.5423908542665207 0.061660233086195504 0.0 1.2300722138001605 -0.14231309723590344 0.0 0.20716566846232354 -0.037895176001679104 0.0 1.2056089642348706 0.17344908735548498 0.0 0.8828212602545132 0.17970428000298944 0.0 0.7011319507749105 -0.16795288403435174 0.0 1.1155517245012452 -0.0942627705493494 0.0 1.0385358744801212 -0.22371807868757557 0.0 0.863764026853683 -0.1826759385657716 0.0 0.8754246106400034 -0.025631370544601895 0.0 0.44342016928461003 -0.049086185437722446 0.0 0.29548052567146843 -0.033435035686571024 0.0 1.3292302264852323 -0.04197135423780113 0.0 0.21218223874245598 -0.013578592245790642 0.0 1.355552567944218 -0.08652949108964715 0.0 0.1954866625503103 -0.019064446613404853 0.0 0.5384692899838968 -0.0162375598952394 0.0 -0.000366146614824975 -0.011104404612908304 0.0 0.574680595824108 -0.032209125081326326 0.0 0.8788889045074474 0.2971112396104704 0.0 0.8795604505448306 0.4107238438977897 0.0 0.8850801615395513 0.27028505376559636 0.0 0.9122189999866622 0.10981701737567058 0.0 0.8651714093430312 0.2232550871931854 0.0 0.9047213008144159 0.3036719492268545 0.0 0.8572260519149991 0.2334783647034267 0.0 0.8020131681512458 0.18334399722618888 0.0 0.867049755540427 0.16149804135061163 0.0 0.0 0.0 0.0 0.8415111076426651 0.17666013611093612 0.0 0.8706550570494659 0.1709858856441642 0.0 1.2128599661755344 0.04975949002734055 0.0 1.237724061551208 0.06487692733213704 0.0 0.891308697702948 0.013029827425213634 0.0 0.595479755422967 -0.026011804968698246 0.0 1.2796412538585362 0.14703726036621628 0.0 0.7176283736684457 -0.1737285652756655 0.0 1.1779475283689376 -0.16453453387811035 0.0 0.9992889113401201 -0.020079333310464104 0.0 1.3239874356760355 -0.007651636989905115 0.0 0.5881461701005153 -0.0004964904283362071 0.0 1.2208853355317877 -0.012677872862905394 0.0 0.9845838104939243 0.009128096811126826 0.0 -0.002911014732700897 -0.006949825419916998 0.0 -0.09656568715316093 5.512752629838412e-05 0.0 0.9448502470937016 0.34117220599647974 0.0 0.8784753108571508 -0.018551342261927475 0.0 0.430070618427446 -0.008790900002031102 0.0 0.0 0.0 0.0 1.3282985922861454 0.03752449384073048 0.0 1.2126314354719803 0.024825081188419612 0.0 1.3169885584613392 0.11456412971098429 0.0 1.2523937757216472 -0.04381353286899736 0.0 0.417179307352333 -0.014170136113133253 0.0 1.2289552611412444 0.01064513774265896 0.0 1.2916492770964092 0.05768160882176547 0.0 0.043027372182785184 -0.009788164681049908 0.0 -0.08307548281740935 -0.005518049009565849 0.0 -0.06728983482039883 -0.0077271071257453494 0.0 -0.08241649251999339 0.00198776619290619 0.0 1.1856809322999893 0.219575025095112 0.0 0.7774218978790285 0.19842541422167204 0.0 0.7779048741893567 0.15419648296496186 0.0 0.7857328229918146 0.10688090356811387 0.0 0.6205588115992801 0.11095326143580282 0.0 0.35624541506165563 0.0005654362893533825 0.0 0.09568644479845738 0.0027015898542276807 0.0 0.36664382535879975 -0.020429263110331775 0.0 1.0717472600153088 0.0766978123630563 0.0 0.0 0.0 0.0 0.5228678833831505 0.011224089018546613 0.0 0.9334646419815831 0.02932802666417564 0.0 -0.1085798487484424 -0.00023404062386652382 0.0 1.0969374058380617 0.266900541832341 0.0 0.9003312789951148 0.11236484252534283 0.0 1.2796723782971298 -0.048806268016967774 0.0 0.18977214406420137 -0.003681264227211495 0.0 0.36188281750145634 0.018289875605691702 0.0 0.14563226697070036 0.0004053941769065908 0.0 1.3035295796117685 0.03984975076253945 0.0 -0.1059443685653282 -0.002372436363218934 0.0 -0.0767789071850476 -0.006799462712570426 0.0 -0.09667849597241857 -0.004716099145683729 0.0 -0.04239482086402863 0.005483053958009587 0.0 -0.09369074160555321 0.0008695713970476027 0.0 -0.11451057977272908 -0.00037744225049571534 0.0 -0.06506283429550977 -0.0011952438060355752 0.0 -0.039621696732536134 0.00259396433587236 0.0 -0.11800070403826572 -0.001784692599652839 0.0 0.07743521388165538 -0.002397555431428429 0.0 -0.03738013810889379 0.004400575689372656 0.0 -0.12060967807056636 7.96348338154236e-05 0.0 -0.11964266999611067 -0.00019081750473813234 0.0 -0.02145863399452828 -0.001981377120352597 0.0 0.0 0.0 0.0 0.9463695745584859 0.25537803343217114 0.0 0.9513524208914997 0.04008405266468355 0.0 0.2272813686174487 -0.005164784794325909 0.0 0.3121832210816395 -0.004729489694301607 0.0 0.5472968459483002 0.021042423308346537 0.0 0.9142728731177943 0.043493684408394365 0.0 1.1929544457009706 0.034945000007513854 0.0 1.3533020971406826 0.01475584047763473 0.0 0.09019563531441158 0.002960391844553581 0.0 -0.03381454867357862 1.9474386635739226e-05 0.0 0.025393487465941406 -0.009801207798174201 0.0 0.13756881380121705 -0.008589765813538701 0.0 0.12780198787686578 -0.012776901173690297 0.0 0.31725067216259245 -0.022640449828975732 0.0 0.5760632212257896 -0.04945723613656523 0.0 0.8592973791203434 -0.05164280024463526 0.0 0.3683199159818685 -0.030597345968081724 0.0 0.5561562627266673 -0.03528537963059774 0.0 0.6509948444376762 -0.046777355363654724 0.0 0.7704592725990002 -0.040708956193147315 0.0 0.26115859747032494 -0.026619734103354876 0.0 1.2722775938504247 -0.06371965915574256 0.0 1.0580020337463096 -0.05117343185596271 0.0 1.2859263576100446 -0.02875323200215456 0.0 1.0486119085008307 -0.03940942143618213 0.0 -0.039560819703381406 -0.0064461469312039246 0.0 1.0265245925774926 -0.06587354992814062 0.0 1.0599580955298595 -0.029990118181362938 0.0 1.2263143614665153 -0.10315138204260536 0.0 -0.10517580946287221 0.0005877690259844092 0.0 0.4618308674860732 -0.043946238769792846 0.0 1.252361653170969 -0.10568687089913223 0.0 0.13417107102590253 -0.0197303181802108 0.0 -0.11900436085551233 0.0013771481873167154 0.0 1.2616606818641707 -0.08636962662973781 0.0 0.0665640492761284 -0.018819681308213675 0.0 -0.10822891526761459 -3.486528011256905e-05 0.0 -0.02403088192324564 0.012931035219931325 0.0 0.04884471074711743 -0.015380795031442403 0.0 -0.06387689052473715 -0.005387911093316545 0.0 0.4205205875410183 -0.047089987102916994 0.0 -0.043574869593542113 -0.00833208245200628 0.0 0.11302467888220229 0.030561343029578386 0.0 -0.07936554892836815 0.008773897127697652 0.0 -0.06851695076111135 -0.004092087294847762 0.0 -0.09572794569305827 0.0034923544960344887 0.0 0.04125077813944058 0.020261761939192137 0.0 1.21613338842641 0.09947729074115812 0.0 0.32900817313017056 0.03999832477115121 0.0 0.30737622387655855 -0.04327943824154231 0.0 0.2578972984190422 -0.010531766628553397 0.0 0.7092355656058019 -0.020795567107619973 0.0 0.3093612709798479 0.005638132900121821 0.0 1.1776847185483184 0.05370877701359082 0.0 0.8910399387625262 0.062094858105884804 0.0 0.9294938477892013 -0.08134906667749044 0.0 -0.04623037872937338 -0.003785378040029426 0.0 -0.05621452824528956 -0.002458964407601288 0.0 -0.11632041927782058 0.0001571022899931694 0.0 -0.043622524931268856 0.00615930812100644 0.0 -0.07666993323346634 -0.002358213808124545 0.0 0.32791266055379487 -0.036602560678490596 0.0 1.2587758663984585 -0.09276611385018338 0.0 0.627119672828427 -0.05988413909570949 0.0 0.8943911754853386 -0.0846205218679711 0.0 -0.026370319203541007 0.015514874561455765 0.0 0.0647296141882706 -0.021180264078240186 0.0 -0.002805663851476459 -0.014450053489603175 0.0 0.21195460806883554 -0.03791468494994331 0.0 -0.011984236460668814 -0.013153569278395357 0.0 1.2511013983233414 0.10412782639756972 0.0 -0.0625906972265728 0.00011607521893037826 0.0 -0.01183978349348996 0.00996379345014324 0.0 -0.047334911837722336 0.00031245521081848415 0.0 0.05922080757208835 -0.02280653460097587 0.0 0.3397679621428937 0.025882989955035095 0.0 0.6891357753130084 -0.06844765459813361 0.0 0.509278946032597 -0.058246361546239314 0.0 0.7871284805150376 -0.06672416884600271 0.0 0.2671792915172616 -0.036464516556463746 0.0 0.8208421805840496 -0.08721529299527299 0.0 1.1665715962346996 -0.08987421717096156 0.0 1.0672751330928687 -0.0822584227973597 0.0 1.0402897055660218 -0.07377875455650613 0.0 0.5940841147136103 -0.06845853271236411 0.0 0.5060997123118282 -0.06402912087647832 0.0 0.39405030436072824 -0.05808072636021947 0.0 0.3693189714522936 -0.054079564752571294 0.0 0.14835843163352014 -0.032905866056786366 0.0 0.788846111559409 -0.08864473848451487 0.0 0.26219088592393586 0.015591859052791687 0.0 0.6095740075485684 0.03858796767941252 0.0 0.06882741987463978 0.007383068875246119 0.0 0.17337485084307483 0.01979667801177253 0.0 -0.06843381431894077 0.001676928903493844 0.0 1.332930105790617 -0.02432774025124456 0.0 1.2177454150390803 0.041543696729682236 0.0 1.3546994875978702 -0.01174087544321986 0.0 1.3268375798898444 -0.06234734274500011 0.0 0.1732882864639426 -0.036588778709868076 0.0 0.36049956062404737 -0.056258812588459356 0.0 0.5610934597727316 0.04841472177625044 0.0 0.08883484791645309 0.01811843879841267 0.0 1.3083722889005962 0.0042912476750175885 0.0 1.3478367990246867 -0.032456953803803035 0.0 0.514795199137753 0.06774289904268677 0.0 1.3274643207732637 -0.07577611959534408 0.0 0.591215939601688 0.04454920829702572 0.0 1.2826313623285557 0.07282349887301032 0.0 0.33452124406106815 0.03581013631428938 0.0 0.7058783385098129 0.06560167165267448 0.0 1.3348684423170976 0.024539460974473085 0.0 1.2310158313058328 -0.023876834181423758 0.0 1.3184837512139862 -0.08598953203175849 0.0 0.8269858718163465 0.06270978390175222 0.0 1.048811071665091 0.08027221943764473 0.0 1.1081279676816205 0.07350424492216624 0.0 1.2651809399255325 0.09823109224370584 0.0 1.1276552667161526 0.09772453403207727 0.0 0.9757342770484485 0.08267113444034412 0.0 0.6696798052595755 0.06923570568079318 0.0 1.2744790859050963 -0.08975759435477158 0.0 0.0 0.0 0.0 1.3075737857643872 0.05841386383758703 0.0 0.9161982300105116 0.09025510687696335 0.0 0.3259586187274714 0.0445874544397998 0.0 1.3152595581474542 0.07223626521551496 0.0 0.899403561326431 0.0865677867637705 0.0 1.2697447001664461 0.0916636289888224 0.0 0.5981344895554322 0.06805033515755265 0.0 1.2597574794565811 0.10242456363070998 0.0 0.5474727316921547 0.0687988851974816 0.0 0.2559431824237441 0.04246373661210102 0.0 1.144907400812023 0.10126857921573572 0.0 0.6604012768107064 0.0758516424233405 0.0 1.0698437681627067 0.10209715812460952 0.0 0.8425889662012432 0.09032979669249935 0.0 0.772404652328849 0.08739128767111308 0.0 1.1954577928910373 0.08968447924166738 0.0 1.1157970526845675 0.09271466113980796 0.0 1.3051492656335977 0.082245686496548 0.0 0.15671269794418718 0.0316547635797006 0.0 1.1513071142240745 0.077581493539695 0.0 1.214013733158648 0.10478621423329115 0.0 1.154493302662883 0.10551358267017283 0.0 1.2318601662340447 0.10352888242232143 0.0 1.241347710418586 0.10524995220478842 0.0 1.289761246781713 0.08694080882126178 0.0 1.1821233970983553 0.06824098884485492 0.0 0.9405042957213076 0.09788639959161338 0.0 1.2282676977333156 0.09006901111390316 0.0 1.2773658247047055 0.08981472434390486 0.0 1.0443368470519718 0.06463600877964829 0.0 1.1591676415119094 0.10578833198518388 0.0 1.0752203206138042 0.10367452172210258 0.0 1.055999652232775 0.10338075190699138 0.0 1.2315996105316616 0.09385641057432899 0.0 0.0 0.0 0.0 0.6445135406918289 -0.005643546689259381 0.0 1.0778342848324785 0.4341579484434332 0.0 1.1669076436679506 0.4221450947525068 0.0 1.082309480636159 -0.4267726822951337 0.0 0.8656201524839715 -0.22701241665763386 0.0 0.9789079403334527 -0.2554923651768874 0.0 0.8923751013121732 -0.08501488192350747 0.0 1.2231483098228566 -0.05245499430794363 0.0 1.0816758072106794 -0.064266002028915 0.0 1.1987432879571036 -0.1047230964158348 0.0 1.265234252392979 -0.0846174850332345 0.0 1.315459073647581 -0.053731364411236215 0.0 -0.08492547305863818 -0.0029216902598154615 0.0 -0.05013007763266315 0.006152824658793741 0.0 0.0023684078205626242 0.00834287176467704 0.0 0.0017196931953103926 0.010596570876726783 0.0 0.15167206736771974 0.02575558568208577 0.0 -0.058315065230902456 0.007355817289954169 0.0 0.06377932825666036 0.02123498371351767 0.0 0.22388920829057626 0.03703379741397855 0.0 0.08782732463126212 0.0387200986529588 0.0 -0.03720574501503741 0.014854768628274997 0.0 1.0346735839477517 0.1606779459999817 0.0 -0.06763915664104284 0.007201972704776813 0.0 1.2559218933187069 -0.10023881403431113 0.0 1.1430560911801977 -0.09739931851231153 0.0 0.9525141482151829 -0.0916864710294361 0.0 1.1057938072361708 -0.101963132435509 0.0 1.2406140303946207 -0.10712145433699523 0.0 0.9158134122201959 -0.0954764794767944 0.0 1.2484975345418754 -0.1072696564027103 0.0 1.0800863281076791 -0.10548873856170449 0.0 1.1349985690091575 -0.10515911136001482 0.0 0.8669994463893418 -0.09600148469263918 0.0 0.910390943536246 -0.09812630734224705 0.0 0.6304740918289548 -0.07877593071633159 0.0 1.1064048535495237 -0.10834979849432981 0.0 1.2338964692598016 -0.10666044766939475 0.0 1.0708291421392884 -0.10619798100724705 0.0 1.1688238946205747 -0.08605035795271483 0.0 1.1943481836477496 -0.10929098200925207 0.0 0.6859447942818659 -0.08330509550446648 0.0 1.1420154713077582 -0.10618456454676214 0.0 0.941609509758628 -0.099646