<?xml version="1.0"?>
<VTKFile type="UnstructuredGrid"  version="0.1"  >
<UnstructuredGrid>
<Piece  NumberOfPoints="1289" NumberOfCells="2413">
<Points>
<DataArray  type="Float64"  NumberOfComponents="3"  format="ascii">0 0 0  0 0.41 0  2.2 0.41 0  2.2 0 0  0.1 0.1 0  0.1 0.3 0  0.8 0.3 0  0.8 0.1 0  0.25 0.2 0  0.248976 0.210065 0  0.245948 0.219718 0  0.241038 0.228563 0  0.234448 0.23624 0  0.226448 0.242432 0  0.217365 0.246888 0  0.207571 0.249423 0  0.197468 0.249936 0  0.187467 0.248404 0  0.17798 0.24489 0  0.169395 0.239539 0  0.162062 0.232569 0  0.156283 0.224265 0  0.152293 0.214968 0  0.150257 0.205058 0  0.150257 0.194942 0  0.152293 0.185032 0  0.156283 0.175735 0  0.162062 0.167431 0  0.169395 0.160461 0  0.17798 0.15511 0  0.187467 0.151596 0  0.197468 0.150064 0  0.207571 0.150577 0  0.217365 0.153112 0  0.226448 0.157568 0  0.234448 0.16376 0  0.241038 0.171437 0  0.245948 0.180282 0  0.248976 0.189935 0  1.1 0 0  1.1 0.41 0  0.1 0.2 0  0.45 0.1 0  0.45 0.3 0  0.55 0 0  0.275 0.1 0  0.275 0.3 0  0.275 0 0  0.55 0.41 0  0 0.205 0  0.825 0 0  0.825 0.41 0  0.275 0.41 0  0.1 0.15 0  0.1875 0.1 0  0.1 0.25 0  0.1875 0.3 0  0.132322 0.2 0  0.241426 0.253518 0  0.241426 0.146482 0  0.264574 0.17974 0  0.264574 0.22026 0  0.138434 0.187348 0  0.153372 0.150948 0  0.148413 0.164094 0  0.176495 0.136535 0  0.22768 0.143571 0  0.138434 0.212652 0  0.148413 0.235906 0  0.176495 0.263465 0  0.22768 0.256429 0  0.23125 0.3 0  0.24769 0.24094 0  0.23125 0.1 0  0.24769 0.15906 0  0.26253 0.193641 0  0.190482 0.137872 0  0.166753 0.146661 0  0.157737 0.244461 0  0.190482 0.262128 0  0.203107 0.261264 0  0.253635 0.22977 0  0.203107 0.138736 0  0.253635 0.17023 0  0.261028 0.206206 0  0.167707 0.251809 0  0.143629 0.224191 0  0.215302 0.2591 0  0.270465 0.245894 0  0.215302 0.1409 0  0.270465 0.154106 0  0.284052 0.202587 0  0.14375 0.3 0  0.209375 0.3 0  0.225966 0.278501 0  0.209375 0.1 0  0.225966 0.121499 0  0.211613 0.273759 0  0.211613 0.126241 0  0.143629 0.175809 0  0.1 0.175 0  0.133484 0.164832 0  0.144491 0.249539 0  0.1 0.225 0  0.133484 0.235168 0  0.3625 0.3 0  0.25691 0.253381 0  0.25691 0.146619 0  0.277205 0.188698 0  0.184724 0.275712 0  0.237372 0.268285 0  0.184724 0.124288 0  0.237372 0.131715 0  0.197578 0.273149 0  0.193656 0.286994 0  0.197578 0.126851 0  0.193656 0.113006 0  0.122953 0.187671 0  0.118362 0.153758 0  0.155372 0.258107 0  0.122953 0.212329 0  0.118362 0.246242 0  0.276394 0.27264 0  0.276394 0.12736 0  0.280965 0.170013 0  0.253125 0.3 0  0.14375 0.1 0  0.253125 0.1 0  0.269489 0.26014 0  0.269489 0.13986 0  0.303639 0.184297 0  0.165625 0.3 0  0.134742 0.273113 0  0.257831 0.274737 0  0.255279 0.128499 0  0.3625 0.1 0  0.165625 0.1 0  0.162031 0.132368 0  0.134955 0.126405 0  0.149334 0.125568 0  0.142936 0.139597 0  0.12695 0.140259 0  0.242514 0.285501 0  0.242514 0.114499 0  0.1 0.125 0  0.117483 0.12555 0  0.11154 0.139776 0  0.121875 0.1 0  0.109143 0.1125 0  0.126805 0.114 0  0.220313 0.29129 0  0.351562 0.287369 0  0.207222 0.2866 0  0.220312 0.10871 0  0.1375 0 0  0.20625 0 0  0.207222 0.1134 0  0.11722 0.17118 0  0.1 0.1625 0  0.0778409 0.16875 0  0.0862762 0.15625 0  0 0.15375 0  0 0.1025 0  0.11722 0.22882 0  0.1 0.2375 0  0 0.3075 0  0.0862762 0.23125 0  0.0598995 0.222547 0  0.0860223 0.2125 0  0.289584 0.181469 0  0.300267 0.16446 0  0.163832 0.269071 0  0.149597 0.273325 0  0.1 0.275 0  0.268498 0.285953 0  0.31875 0.3 0  0.294154 0.254672 0  0.296875 0.3 0  0.293558 0.271845 0  0.285095 0.286799 0  0.324298 0.264316 0  0.307866 0.263745 0  0.317093 0.234901 0  0.315485 0.281219 0  0.316547 0.250625 0  0.344693 0.243731 0  0.331592 0.251147 0  0.35129 0.270663 0  0.338689 0.263683 0  0.340625 0.3 0  0.249849 0.264383 0  0.265097 0.11422 0  0.284688 0.156136 0  0.242188 0.324017 0  0.0856613 0.2625 0  0.132812 0.0612217 0  0.264062 0.0612217 0  0.198437 0.07598340000000001 0  0.0860223 0.1375 0  0.0794526 0.191089 0  0.285228 0.140397 0  0.298655 0.148737 0  0.31875 0.1 0  0.327335 0.15374 0  0.296875 0.1 0  0.312289 0.155283 0  0.313348 0.135607 0  0.321802 0.173916 0  0.298433 0.134116 0  0.112124 0.2625 0  0.127526 0.259083 0  0.121875 0.3 0  0.0682687 0.241503 0  0.1 0.2875 0  0.117762 0.28125 0  0.107813 0.3 0  0.103906 0.313849 0  0.0778409 0.28125 0  0.1375 0.41 0  0.0862762 0.29375 0  0.08886860000000001 0.24375 0  0.307812 0.338778 0  0.307812 0.292227 0  0.33216 0.279164 0  0.387888 0.266414 0  0.264063 0.31948 0  0.110937 0.07598340000000001 0  0.242188 0.07598340000000001 0  0.319914 0.11839 0  0.340625 0.1 0  0.334448 0.133793 0  0.329687 0.108539 0  0.346259 0.118491 0  0.360334 0.173636 0  0.327539 0.205033 0  0.132812 0.288712 0  0.362436 0.278836 0  0.368105 0.259418 0  0.4125 0.41 0  0.329687 0.324017 0  0.329687 0.292306 0  0.285938 0.318952 0  0.417187 0.338778 0  0.324481 0.14148 0  0.351562 0.106771 0  0.40625 0.1 0  0.341028 0.168342 0  0.319221 0.190479 0  0.335292 0.184501 0  0.305563 0.20794 0  0.220313 0.31948 0  0.132812 0.332772 0  0.0865876 0.311259 0  0.0598995 0.302453 0  0.0906541 0.343255 0  0.353543 0.255837 0  0.36574 0.237633 0  0.405007 0.254279 0  0.275795 0.352123 0  0.4125 0 0  0.35493 0.137394 0  0.366563 0.120618 0  0.35917 0.205246 0  0.198438 0.318952 0  0.0626109 0.263892 0  0.40625 0.3 0  0.354809 0.155936 0  0.386512 0.146872 0  0.373101 0.159939 0  0.384375 0.1 0  0.343394 0.19929 0  0.350682 0.185683 0  0.368101 0.189748 0  0.344016 0.221511 0  0.391108 0.213329 0  0.376279 0.204783 0  0.398843 0.182768 0  0.375804 0.222746 0  0.390665 0.196958 0  0.394004 0.23518 0  0.359883 0.222828 0  0.419908 0.204359 0  0.404243 0.204783 0  0.412615 0.224526 0  0.20625 0.41 0  0.165625 0.325257 0  0.0347982 0.244954 0  0.379558 0.247154 0  0.34165 0.147603 0  0.372264 0.136992 0  0.388988 0.121989 0  0.373437 0.108554 0  0.351562 0.31948 0  0.391367 0.16527 0  0.399572 0.223324 0  0.452011 0.227371 0  0.40877 0.239392 0  0.431491 0.237337 0  0.421224 0.250459 0  0.449619 0.262098 0  0.418865 0.276779 0  0.437063 0.252274 0  0.415673 0.263227 0  0.430988 0.266772 0  0.402767 0.273419 0  0.452967 0.244883 0  0.428125 0.3 0  0.408502 0.286186 0  0.384375 0.3 0  0.392267 0.285807 0  0.465927 0.219339 0  0.43489 0.283846 0  0.376424 0.286289 0  0.625 0.3 0  0.473533 0.205186 0  0.461713 0.255517 0  0.5375 0.3 0  0.465725 0.235405 0  0.44631 0.201425 0  0.471875 0.3 0  0.494307 0.227729 0  0.459448 0.206736 0  0.462294 0.180792 0  0.478933 0.227536 0  0.486793 0.21381 0  0.486322 0.251373 0  0.50065 0.215318 0  0.54005 0.175389 0  0.474633 0.189893 0  0.512916 0.208697 0  0.49531 0.199967 0  0.475889 0.175275 0  0.625 0.1 0  0.459311 0.153933 0  0.513645 0.242704 0  0.392892 0.248539 0  0.374815 0.271913 0  0.365974 0.14871 0  0.395312 0.109184 0  0.417061 0.123981 0  0.483196 0.277003 0  0.381967 0.179632 0  0.429898 0.219374 0  0.433473 0.206165 0  0.43149 0.181038 0  0.444208 0.215487 0  0.472985 0.247309 0  0.49375 0.3 0  0.475579 0.262714 0  0.49916 0.274293 0  0.501175 0.184809 0  0.514164 0.225681 0  0.543648 0.214977 0  0.5341630000000001 0.23481 0  0.527396 0.216171 0  0.5375 0.1 0  0.534548 0.202315 0  0.561545 0.192513 0  0.5494289999999999 0.201221 0  0.570923 0.218346 0  0.412582 0.149833 0  0.489327 0.264745 0  0.502439 0.254775 0  0.462391 0.271166 0  0.496775 0.241732 0  0.5294410000000001 0.268606 0  0.482812 0.291099 0  0.46879 0.285038 0  0.452663 0.284065 0  0.51789 0.257882 0  0.53408 0.252026 0  0.560142 0.243543 0  0.545708 0.243474 0  0.547532 0.229019 0  0.55282 0.265323 0  0.398971 0.153424 0  0.400349 0.135684 0  0.410135 0.168145 0  0.428823 0.161323 0  0.415266 0.183779 0  0.329687 0.0810483 0  0.395312 0.0612217 0  0.373437 0.318952 0  0.439062 0.324017 0  0.561816 0.229354 0  0.585029 0.239287 0  0.431827 0.139854 0  0.446796 0.168929 0  0.351562 0.07598340000000001 0  0.395313 0.318944 0  0.54337 0.150762 0  0.460937 0.31948 0  0.418412 0.137529 0  0.428125 0.1 0  0.442783 0.152332 0  0.450742 0.134294 0  0.373437 0.0805201 0  0.384383 0.342558 0  0.482812 0.318952 0  0.429239 0.127457 0  0.444274 0.117405 0  0.426548 0.113815 0  0.49375 0.1 0  0.488954 0.113984 0  0.457973 0.121842 0  0.471621 0.137346 0  0.515625 0.325257 0  0.48125 0.41 0  0.417187 0.07598340000000001 0  0.496363 0.126778 0  0.479043 0.155715 0  0.439062 0.0805201 0  0.481795 0.126919 0  0.471875 0.1 0  0.489227 0.142159 0  0.515625 0.1 0  0.520062 0.147117 0  0.501244 0.161791 0  0.505431 0.112984 0  0.505344 0.14029 0  0.526563 0.119081 0  0.5181750000000001 0.131908 0  0.539868 0.136937 0  0.460937 0.108383 0  0.474242 0.114415 0  0.460937 0.0810483 0  0.487841 0.167168 0  0.526563 0.0612217 0  0.526563 0.106406 0  0.537619 0.112743 0  0.58125 0.1 0  0.559375 0.1 0  0.482812 0.08105569999999999 0  0.471883 0.0587655 0  0.570312 0.129396 0  0.548437 0.07598340000000001 0  0.504687 0.08105569999999999 0  0.49375 0.0470127 0  0.570312 0.112663 0  0.592798 0.12103 0  0.553986 0.12103 0  0.570312 0.0805201 0  0.48125 0 0  0.114787 0.2 0  0.160769 0.284765 0  0.175816 0.288361 0  0.162602 0.116048 0  0.154687 0.07598340000000001 0  0.176562 0.0805201 0  0.0598995 0.147547 0  0.307812 0.109924 0  0.291279 0.117157 0  0.278491 0.112989 0  0.285937 0.07598340000000001 0  0.307812 0.0805201 0  0.296928 0.196743 0  0.318141 0.218507 0  0.330208 0.227509 0  0.301397 0.225668 0  0.302706 0.241401 0  0.292574 0.21424 0  0.282762 0.230935 0  0.284351 0.244775 0  0.269553 0.23261 0  0.278572 0.217242 0  0.226924 0.342606 0  0.446928 0.185396 0  0.515625 0.3 0  0.504687 0.288879 0  0.515256 0.276534 0  0.529479 0.285328 0  0.58125 0.3 0  0.541969 0.272936 0  0.559375 0.3 0  0.556796 0.282529 0  0.543473 0.287206 0  0.581429 0.267774 0  0.566728 0.271171 0  0.570869 0.255585 0  0.577404 0.283865 0  0.603125 0.3 0  0.597531 0.28035 0  0.570312 0.338778 0  0.592188 0.292492 0  0.603513 0.256094 0  0.614063 0.286265 0  0.610329 0.27064 0  0.632708 0.251285 0  0.657223 0.261594 0  0.618789 0.257807 0  0.614188 0.22987 0  0.630935 0.265614 
[...]
<PointData  Vectors="v"> 
	<DataArray  type="Float64"  Name="v"  NumberOfComponents="3" format="ascii">
0.0 0.0 0.0 0.0 0.0 0.0 0.0 0.0 0.0 0.0 0.0 0.0 0.7962400961381194 -0.19597167137292298 0.0 0.8404030057158904 0.20773806860117297 0.0 1.1694676068912988 -0.05972168664599374 0.0 1.1379883721528086 0.0552648786978549 0.0 0.0 0.0 0.0 0.0 0.0 0.0 0.0 0.0 0.0 0.0 0.0 0.0 0.0008769091345010146 0.0008131398569330155 0.0 0.00023407518100388385 0.0002667688417682197 0.0 0.0004588564957660062 0.0008057638650446748 0.0 0.0 0.0 0.0 0.0 0.0 0.0 0.0 0.0 0.0 0.0 0.0 0.0 0.0 0.0 0.0 0.0 0.0 0.0 0.0 0.0 0.0 0.0 0.0 0.0 0.0 0.0 0.0 0.0 0.0 0.0 0.0 0.0 0.0 0.0 0.0 0.0 0.0 0.0 0.0 0.0 0.0 0.0 0.0 0.0 0.0 0.0 0.0 0.0 0.0 0.0 0.0 0.0 0.0 0.0 0.0005012061501629352 -0.0008707920667627294 0.0 0.0003771705427597453 -0.0005162180927364558 0.0 0.0008559760913801462 -0.0007951082995334553 0.0 0.0 0.0 0.0 0.0 0.0 0.0 0.0 0.0 0.0 0.0 0.0 0.0 0.0 0.0 0.0 0.761337180386139 -0.001305472530759977 0.0 1.2747713314578168 0.08115863193979948 0.0 1.2655068184541372 -0.07728414959973011 0.0 0.0 0.0 0.0 1.3535389524792334 -0.13276324078192933 0.0 1.3580158921719847 0.15504183854409115 0.0 0.0 0.0 0.0 0.0 0.0 0.0 1.0 0.0 0.0 0.0 0.0 0.0 0.0 0.0 0.0 0.0 0.0 0.0 0.8426110186656403 -0.23189497055938732 0.0 1.1514284512002275 -0.3442113792820578 0.0 0.8637865203860307 0.22927941086519157 0.0 1.166267044447854 0.35398423290753883 0.0 0.42824484568898963 -0.003996459163228474 0.0 0.1655116451513304 0.06174350761530689 0.0 0.1703154209553782 -0.06071291617636361 0.0 -0.02876798648999553 -0.03915104286243104 0.0 -0.02725990238250374 0.03786997974479478 0.0 0.33439196566119955 -0.2798767983380382 0.0 0.8579452206060402 -0.6734753960962977 0.0 0.6400336744616094 -0.688189181083471 0.0 1.2062568556368796 -0.6132858149603369 0.0 0.41601855114982567 -0.06885812403087509 0.0 0.33045111235866026 0.2687223141801589 0.0 0.64284411089966 0.6693108170391728 0.0 1.1852231920933705 0.6153471095266312 0.0 0.4083949676422232 0.0709018971223589 0.0 1.313069680324931 0.2607428893600069 0.0 0.33872898296360465 0.26315546628739356 0.0 1.3025800632082585 -0.2402843647018866 0.0 0.32468783941179935 -0.2467022197051121 0.0 -0.03476884569945899 -0.017154259975873908 0.0 1.1251456591187714 -0.3987718649809059 0.0 1.0933060679680051 -0.7243724988907926 0.0 0.8520882267438711 0.7707443588035306 0.0 1.1316032004393388 0.39954904759463955 0.0 0.7597456685174478 0.18596913903945747 0.0 0.11127210835214543 0.0536800999340781 0.0 0.7696913834370812 -0.1819049850894991 0.0 0.1132043707369225 -0.051414035542109056 0.0 -0.03077889765074639 0.020298445530108778 0.0 1.027575701795106 0.71889262749624 0.0 0.4423853443914951 0.5291789986833243 0.0 0.4582955529904716 0.17752543860581707 0.0 0.28336908150409273 0.07130100615015549 0.0 0.4644658418900693 -0.17350618157234374 0.0 0.28548189780946315 -0.06595754316000116 0.0 -0.07730826892518104 0.0028187453416165056 0.0 0.9654762556204536 0.3173645391414962 0.0 1.2604975847227493 0.31303280439866094 0.0 1.245248499690415 0.28854473604885056 0.0 1.2348379774670608 -0.30747127313112477 0.0 1.2480951269399718 -0.2808008088357647 0.0 1.2204469013680421 0.330833174839921 0.0 1.226443551445196 -0.32250829857416047 0.0 0.4429151228164693 -0.5446096374461421 0.0 0.8020294016363144 -0.1396447035527018 0.0 0.6715371739365334 -0.4197178266001629 0.0 0.8773896764892166 0.5938257017251666 0.0 0.7993114389630327 0.14278255778630408 0.0 0.6765025601863285 0.4201272711807308 0.0 1.2934173438022945 -0.00762300039812869 0.0 0.29929429119191137 0.14925530836637027 0.0 0.2985795926007968 -0.13752951413768125 0.0 -0.056255201573052215 -0.012529309870911798 0.0 1.2651442316945765 0.4717107086299006 0.0 0.7686398393681754 0.12019587149060112 0.0 1.2612290263622254 -0.4731966112155685 0.0 0.7893785164361794 -0.11517303936284598 0.0 1.275755827000388 0.41793154851387415 0.0 1.2540270069334591 0.4009953271384425 0.0 1.2717653542105525 -0.41412459165190246 0.0 1.2447686078583327 -0.3809788397263956 0.0 0.5835425933674407 -0.16054952453872787 0.0 0.7964570497803679 -0.3318173923772728 0.0 1.010469750933794 0.6037747361676816 0.0 0.591758037183518 0.15058616345975265 0.0 0.8125698042913769 0.3316807445493961 0.0 0.7462505164110141 0.08166318543146701 0.0 0.783721960760744 -0.07317340107698671 0.0 0.05390942334310502 -0.021316244694272162 0.0 1.3631766814946131 0.20742262504384462 0.0 0.929841623503939 -0.32218268448833315 0.0 1.3444261088886722 -0.1898315259574496 0.0 0.41411817724980315 0.09349120061368271 0.0 0.4303846120135999 -0.07955328637801999 0.0 -0.055343805878361824 -0.006635030735740429 0.0 1.0573613548513388 0.35393138202700436 0.0 0.9431725082141914 0.39144106146005847 0.0 0.9221021314128206 0.11257317487132026 0.0 0.8244985674974828 -0.08664077203520366 0.0 1.3059399868139536 0.016415631471891037 0.0 1.0275362852171037 -0.34511969073432125 0.0 1.074559801108618 -0.5703012502750076 0.0 0.9301655495586492 -0.3893757875477247 0.0 0.9975121512740792 -0.4386190996340249 0.0 0.9329750323160284 -0.5428249198824359 0.0 0.8655603236524718 -0.406496442640357 0.0 1.2732579995780609 0.2327262884874859 0.0 1.2716333968175844 -0.21934175092226546 0.0 0.8526689031686614 -0.23562499742743304 0.0 0.879070803120516 -0.30994119458634894 0.0 0.8529150876383682 -0.29904320037215526 0.0 0.8514198133746964 -0.2563750909244344 0.0 0.8542246168027612 -0.25276452393547577 0.0 0.8962943485805053 -0.31944283657454775 0.0 1.329144422223568 0.315339453303097 0.0 1.0858815432625994 -0.002481096218014263 0.0 1.3146063706769409 0.36216294058759446 0.0 1.3213564440783663 -0.29578764611884883 0.0 0.0 0.0 0.0 0.0 0.0 0.0 1.299511710684116 -0.3492683893031357 0.0 0.714261192874803 -0.26733182161691826 0.0 0.8204050195886045 -0.2107732717796719 0.0 0.8711790043646511 -0.11076394243754334 0.0 0.8624511334852217 -0.16377337625199118 0.0 0.9375 0.0 0.0 0.7500000000000001 0.0 0.0 0.7224822551908799 0.26528725636573836 0.0 0.8240441378053998 0.20012649665278734 0.0 0.7499999999999999 0.0 0.0 0.8697217532050203 0.12780617510595968 0.0 0.9287152005372934 0.0428236294534628 0.0 0.8481177783295489 0.04505310558913309 0.0 -0.03578215599064693 -0.010423223812715461 0.0 0.09428754395561763 -0.01589372917984257 0.0 1.115060993163556 0.5547365007436443 0.0 1.0190380239901606 0.4731123306626484 0.0 0.8809749238553861 0.24545217755165152 0.0 1.199885017979246 0.13934426488315244 0.0 1.3291431012185415 0.06000177159849535 0.0 0.3602886593468846 0.03900514937485586 0.0 1.356201645010681 0.10312879691316529 0.0 0.7161237904230228 0.05474115532224153 0.0 1.1712429045466481 0.10066378817513191 0.0 0.5193147990877571 0.01650801445059491 0.0 0.5011588232731069 0.030826679477885834 0.0 0.07355790140220553 0.012655103203348263 0.0 0.9576496699483056 0.03500870395275368 0.0 0.26318926935057324 0.02229725286777501 0.0 0.16745495465140597 0.008029831324358177 0.0 0.27313280426344866 0.014614940279034037 0.0 0.6701103577925226 -0.004594384308347012 0.0 0.5028050082966437 0.007435030754404218 0.0 1.3162656609536783 0.019239419547342144 0.0 0.5420606258414983 0.06157606284360786 0.0 1.2304120286836866 -0.14203880295074406 0.0 0.20755088363221003 -0.037332571604639354 0.0 1.205632257087311 0.17352963223774562 0.0 0.882827276615461 0.17972491611767738 0.0 0.7011122287511589 -0.16792072747774936 0.0 1.115346717937684 -0.09409988676863279 0.0 1.038495056425357 -0.22363552818379084 0.0 0.8637605241686945 -0.18265048220806196 0.0 0.8754256824465502 -0.02560609898700735 0.0 0.4439529834140328 -0.04859015614297595 0.0 0.2958221923943474 -0.03249598221926791 0.0 1.328734312265131 -0.041611860593806206 0.0 0.21173743958844893 -0.01170961236989647 0.0 1.3553818412469458 -0.08610354192435812 0.0 0.1953587897297476 -0.017478687291817414 0.0 0.5387340133265243 -0.015189992069419385 0.0 -0.0005811636657156307 -0.009184701603383551 0.0 0.5752149167817175 -0.03146305347436689 0.0 0.8788999708210717 0.29713658489760486 0.0 0.8795745768771582 0.4107530484860431 0.0 0.8850923692428091 0.27030518704554163 0.0 0.9122224512171985 0.10983599914760958 0.0 0.8651800486233228 0.22327388908068954 0.0 0.9047333253454856 0.3036948634105015 0.0 0.8572360501683147 0.23349696428829422 0.0 0.8020221107123974 0.1833595110551169 0.0 0.8670555810658507 0.16151426394624901 0.0 0.0 0.0 0.0 0.8415176061978157 0.1766761739118128 0.0 0.8706609984633443 0.17100969661914248 0.0 1.2130817060995027 0.049767252919875125 0.0 1.2378928195120587 0.06526203437704238 0.0 0.8920492669766507 0.01361026042054412 0.0 0.5975742267078997 -0.02691428352623223 0.0 1.2797080350965526 0.1471792648107655 0.0 0.7176162692210415 -0.17370124572758316 0.0 1.1778491298599123 -0.16437550187494673 0.0 0.9993599125379803 -0.019323408599483394 0.0 1.3230729122527158 -0.007579868143348281 0.0 0.5878270627189336 0.0007669716855774119 0.0 1.2204264060721663 -0.012201560520570982 0.0 0.983754937702401 0.00972489138573204 0.0 -0.002575856069635264 -0.005562621313435074 0.0 -0.09580716302720835 0.0014230547106355302 0.0 0.9448643164597247 0.3411946982401267 0.0 0.8802326761059026 -0.01855105706991905 0.0 0.4315713668905034 -0.008628131348632415 0.0 0.0 0.0 0.0 1.3287209760973844 0.03737499657688785 0.0 1.2132187674319617 0.025067207899329595 0.0 1.3171477819397448 0.11472398064031679 0.0 1.2517109071067858 -0.044617220776007376 0.0 0.4170220578041294 -0.012717005781818265 0.0 1.227835147334382 0.010669287297422482 0.0 1.2898988843625803 0.055657882182968584 0.0 0.04277845026705225 -0.007830597024789046 0.0 -0.08279612148721542 -0.003911856050783705 0.0 -0.06686706568306884 -0.00596976415071494 0.0 -0.08212531913490696 0.0030589117314261914 0.0 1.1856842789721929 0.21962466524947932 0.0 0.7774348209388474 0.19844255972530125 0.0 0.7779108256687588 0.15421025736650226 0.0 0.7857361605244948 0.10689157908253755 0.0 0.620565219784557 0.11096345874716088 0.0 0.35751360671490184 0.001296742680605077 0.0 0.09652544568949695 0.0029202915882892864 0.0 0.3678405449248195 -0.022461941177224692 0.0 1.071851766803478 0.07673678857453954 0.0 0.0 0.0 0.0 0.5216661566760952 0.012433268596763372 0.0 0.9317498676480239 0.02947178558320729 0.0 -0.1072351236116231 0.0005962245684603256 0.0 1.0969490653383938 0.2669280142271284 0.0 0.9003345826030595 0.11237991706838263 0.0 1.280777158270666 -0.05057187047312881 0.0 0.18893645846178064 -0.001963479778792473 0.0 0.3600440856841601 0.01834580383793723 0.0 0.14506217301406207 0.00140008641520266 0.0 1.3017801947512735 0.03842358557036501 0.0 -0.1049216629401955 -0.0010313891756347675 0.0 -0.07599589129454627 -0.00531548163802915 0.0 -0.09538040892866427 -0.003964739433373105 0.0 -0.0415178589065515 0.0064601346137865305 0.0 -0.09201159119299746 -2.6956529213786746e-05 0.0 -0.11291879557684611 -0.000300183045476422 0.0 -0.06352570919993827 -0.002266658726218726 0.0 -0.03844813178324567 0.0024323364343603175 0.0 -0.11623246449651646 -0.0024622452599245438 0.0 0.07841163302881866 -0.003669842414617942 0.0 -0.03626546312141531 0.004953595557545883 0.0 -0.11855908543055799 -0.0026824203256096 0.0 -0.11771330829249771 -0.001892216416604154 0.0 -0.01993715114395162 -0.0043825652248798645 0.0 0.0 0.0 0.0 0.9463869316743924 0.25539865602235495 0.0 0.9513529399368088 0.0400935802371512 0.0 0.22817262937380312 -0.005603022862422796 0.0 0.31140874293856313 -0.00295327381219338 0.0 0.5453448481655222 0.02161942358759846 0.0 0.911483450090591 0.042697513865700074 0.0 1.191133882172789 0.034354550113060676 0.0 1.353839170633195 0.014339753918843044 0.0 0.09029136149922429 0.002716036727125519 0.0 -0.03236042412604943 -0.001524962129982618 0.0 0.02674733727287986 -0.013731912985857552 0.0 0.13848166378150104 -0.010844032730921592 0.0 0.12892882622995072 -0.016159183724114318 0.0 0.3181694691749314 -0.025560870683395846 0.0 0.5768534044137216 -0.052710232008858535 0.0 0.8617068680586594 -0.054006223440608694 0.0 0.3691371642042354 -0.034055545993834924 0.0 0.5579100427417958 -0.03780235764734754 0.0 0.6527005670713175 -0.049774307509365935 0.0 0.7729457715087178 -0.04246137919008586 0.0 0.26178729610582474 -0.0302974966075265 0.0 1.2727497828251335 -0.06532030867922876 0.0 1.0602140344616207 -0.05315763446591247 0.0 1.2872355175897037 -0.029947580954900327 0.0 1.0508878203189467 -0.04072486502851777 0.0 -0.03830771042847785 -0.010688018658078837 0.0 1.0282037635400003 -0.06833589810179819 0.0 1.061913193764933 -0.030737513229217098 0.0 1.228805796843079 -0.10333140263465924 0.0 -0.10403064913604208 -0.00409099102355884 0.0 0.46201651359348744 -0.047155610216726346 0.0 1.2506676162759127 -0.10175212008407769 0.0 0.13489385937026488 -0.02341486006799505 0.0 -0.11715714407597619 -0.002768354799507938 0.0 1.2602099295935794 -0.08619927620750037 0.0 0.06625626203555825 -0.02155919110106548 0.0 -0.10659237638922847 -0.004503096669704588 0.0 -0.02241902047928704 0.007834909253150694 0.0 0.04935919063720041 -0.018903365625778754 0.0 -0.06351823101585036 -0.009352417832042801 0.0 0.4196732560973885 -0.04906948785624317 0.0 -0.04406580744300515 -0.011505582875187699 0.0 0.11401625792441532 0.02890053970360961 0.0 -0.0780212799583619 0.003544187008205884 0.0 -0.06967985225901911 -0.006910089318547144 0.0 -0.09541763384571311 -0.0009108540996684344 0.0 0.04271163725680387 0.014852003961482573 0.0 1.2176204568528202 0.10520046259546514 0.0 0.32828003208226564 0.03514637174113228 0.0 0.3051799789812455 -0.04338209874658216 0.0 0.25884993593647654 -0.011812674287198833 0.0 0.7113257534110968 -0.021113650966016365 0.0 0.3080382182698109 0.006869532770823697 0.0 1.1752079568083087 0.05206954792588051 0.0 0.8873000385308789 0.05961865441064192 0.0 0.92846321055687 -0.08207946368755277 0.0 -0.04515216630186373 -0.0036506743189771255 0.0 -0.05446015239074672 -0.005817014157236661 0.0 -0.11428076104987955 -0.0033741947050168076 0.0 -0.041935122013201126 0.002582289586272108 0.0 -0.0748531264884861 -0.00637064001966628 0.0 0.3278367396861447 -0.03963877291205552 0.0 1.2566026850811496 -0.09168306430327938 0.0 0.6266488522399037 -0.06203918174842494 0.0 0.8924258403145501 -0.08394887781386413 0.0 -0.025500129164261986 0.010911358444596621 0.0 0.0629493625371643 -0.022524885360093543 0.0 -0.006700684125189921 -0.01410612749133205 0.0 0.20826534284407022 -0.03677555802106288 0.0 -0.014594200990975874 -0.014162643079295942 0.0 1.2543034958736945 0.10721078196139536 0.0 -0.06477090041134194 -0.0012817415898629635 0.0 -0.014012373577240457 0.010808747968964347 0.0 -0.050283628371360016 0.0002826316722763252 0.0 0.053269579199186394 -0.020082429589778003 0.0 0.3380281711365019 0.024078529282853946 0.0 0.6878046301464947 -0.06936120014332657 0.0 0.5072859324091186 -0.058528684258559324 0.0 0.787557272487838 -0.06913555904326889 0.0 0.2661949071714718 -0.038163739666477195 0.0 0.8169224189922436 -0.08413289149493859 0.0 1.1651655480594545 -0.08991975290232843 0.0 1.0670354955378751 -0.08341762134572228 0.0 1.0410612970364728 -0.07578257245171563 0.0 0.5908548363632855 -0.06696451015081273 0.0 0.5019869483325198 -0.06159708076822221 0.0 0.38835251550838873 -0.05442193303860561 0.0 0.36463257469241167 -0.05126542769223875 0.0 0.14371835008262554 -0.031078171972204412 0.0 0.7838558359638172 -0.08438368378192655 0.0 0.2609827132725087 0.014856270707934816 0.0 0.6065572718007126 0.03749733848969238 0.0 0.06945471419809894 0.005591912998314972 0.0 0.17334724607896435 0.016587335829423466 0.0 -0.06668566583015069 -0.000618460649559024 0.0 1.3321928930483766 -0.024356694164135443 0.0 1.2175905603907944 0.04039198945423549 0.0 1.3551844635039223 -0.012520748188010614 0.0 1.3255791643253116 -0.06347526325025406 0.0 0.16749147468214462 -0.033693355162906516 0.0 0.3538143075137362 -0.0521955671416973 0.0 0.5579594067580248 0.045244371164212004 0.0 0.08984818854828386 0.013698600955991494 0.0 1.3075585010573876 0.003924279312173856 0.0 1.3479639878164513 -0.03356610016404757 0.0 0.5175020629217342 0.06682533405526739 0.0 1.3257329003985103 -0.07640968860038064 0.0 0.5879989059201766 0.04221109810356476 0.0 1.281235232276669 0.07042783644302716 0.0 0.33331407317148826 0.03179916083547154 0.0 0.7023666150994622 0.06149285096006108 0.0 1.3339591214887352 0.023735772175418144 0.0 1.230922975317381 -0.024545325436366908 0.0 1.3163220706712928 -0.08511224042421486 0.0 0.8231869707598233 0.05967532863812977 0.0 1.0456132930023134 0.0766352392942966 0.0 1.1049419915318366 0.0705521183145322 0.0 1.2668735384506729 0.0957351535916474 0.0 1.1270972416492988 0.09462464388110704 0.0 0.9725705809369826 0.07875920848292568 0.0 0.6671024168366055 0.06475433286464524 0.0 1.2730912234453904 -0.08763003328726097 0.0 0.0 0.0 0.0 1.307704076483055 0.05639616924484886 0.0 0.9147944793323517 0.08721698844882976 0.0 0.32601079190333154 0.03936567316886217 0.0 1.315852652426996 0.06950243795285614 0.0 0.8971921420994328 0.0827510443607838 0.0 1.2702933579039644 0.089208595427689 0.0 0.5969013771882947 0.06360788823256866 0.0 1.2624264866593242 0.10149343806182065 0.0 0.5485625968632668 0.06587188343577562 0.0 0.25717424477534323 0.037698230844320085 0.0 1.1455934876440321 0.09999612330244821 0.0 0.6600060768589493 0.07226411245841317 0.0 1.0711863328934883 0.10192209951222019 0.0 0.8428381532828348 0.08844398916722032 0.0 0.7745475751640175 0.08709069008458369 0.0 1.1941196687135462 0.08631537103816267 0.0 1.1142229255303755 0.08952653399656899 0.0 1.3067540820334915 0.08002311591824572 0.0 0.157894249388448 0.026313635551787336 0.0 1.1545558220815542 0.07854757489953285 0.0 1.2165489262206515 0.10493450032982758 0.0 1.1573184289883398 0.10706393193948138 0.0 1.2354181409894391 0.10653483385999066 0.0 1.2449334102724852 0.11031027722536735 0.0 1.2923407711062629 0.0859632729845698 0.0 1.1843953523620572 0.06742382927410404 0.0 0.9444645770697045 0.1007419072897527 0.0 1.2318275641429048 0.0906691904508456 0.0 1.280572872787998 0.09015001617757691 0.0 1.0473266360408138 0.06467731046526677 0.0 1.163118499175512 0.10766592797004643 0.0 1.0796212501066638 0.10875143676146967 0.0 1.0587084053357014 0.10602539483104285 0.0 1.2346366548742764 0.09678234011788132 0.0 0.0 0.0 0.0 0.6445162421402767 -0.005608906602332737 0.0 1.0778523495361936 0.43417854073183 0.0 1.1669247265713083 0.4221618687153179 0.0 1.0823089017291958 -0.426721978765693 0.0 0.8655981881031 -0.22696613077172895 0.0 0.9788833274674158 -0.2554266043314999 0.0 0.8923736389252436 -0.08499708744175831 0.0 1.2231616072244231 -0.05190970710141851 0.0 1.0821281921996981 -0.06376069909855027 0.0 1.1990595709286676 -0.10433277364171198 0.0 1.2648990936722775 -0.08438976459289486 0.0 1.314958979435747 -0.05353180255336984 0.0 -0.08501477766545806 -0.0018165761978156424 0.0 -0.04949439592898712 0.007182861614585958 0.0 0.0031380413619199114 0.00935989146489016 0.0 0.002235427183438358 0.011280628038749907 0.0 0.1526984380906137 0.02641094107722942 0.0 -0.058165686476726736 0.008029362513308849 0.0 0.06439041413307175 0.021563171592829066 0.0 0.2253055061574657 0.0374471671191702 0.0 0.08839319491055216 0.03901680442650625 0.0 -0.03722758401434687 0.015305494024183056 0.0 1.0347067358661806 0.16071843765078098 0.0 -0.06584747440397333 0.002666840601171778 0.0 1.2537237778189687 -0.09810922438093386 0.0 1.1408148103504874 -0.09526884827213893 0.0 0.949627055203501 -0.08957979355291143 0.0 1.1029124207425982 -0.09797895409918608 0.0 1.2411266430561385 -0.10482975062062042 0.0 0.9117138493021755 -0.0915988040072336 0.0 1.2477842934335936 -0.10302933734609548 0.0 1.0771753259598134 -0.1005794201296734 0.0 1.1321572360599315 -0.10166691871811202 0.0 0.8622038346256433 -0.09162168148046915 0.0 0.9058757651653612 -0.093638136942641 0.0 0.624594154105266 -0.07433518591935978 0.0 1.1042595735352603 -0.10440854776076637 0.0 1.235884938249562 -0.1051692310710445 0.0 1.0688337668935368 -0.10313424923130221 0.0 1.1700033126422376 -0.08462681969295395 0.0 1.1947609132216441 -0.10590224777364296 0.0 0.680218219559115 -0.07978585586103035 0.0 1.1420511170753596 -0.10476091010249637 0.0 0.9381801305436034 -0.09722610455776576 0.0 0.