<?xml version="1.0"?>
<VTKFile type="UnstructuredGrid"  version="0.1"  >
<UnstructuredGrid>
<Piece  NumberOfPoints="1289" NumberOfCells="2413">
<Points>
<DataArray  type="Float64"  NumberOfComponents="3"  format="ascii">0 0 0  0 0.41 0  2.2 0.41 0  2.2 0 0  0.1 0.1 0  0.1 0.3 0  0.8 0.3 0  0.8 0.1 0  0.25 0.2 0  0.248976 0.210065 0  0.245948 0.219718 0  0.241038 0.228563 0  0.234448 0.23624 0  0.226448 0.242432 0  0.217365 0.246888 0  0.207571 0.249423 0  0.197468 0.249936 0  0.187467 0.248404 0  0.17798 0.24489 0  0.169395 0.239539 0  0.162062 0.232569 0  0.156283 0.224265 0  0.152293 0.214968 0  0.150257 0.205058 0  0.150257 0.194942 0  0.152293 0.185032 0  0.156283 0.175735 0  0.162062 0.167431 0  0.169395 0.160461 0  0.17798 0.15511 0  0.187467 0.151596 0  0.197468 0.150064 0  0.207571 0.150577 0  0.217365 0.153112 0  0.226448 0.157568 0  0.234448 0.16376 0  0.241038 0.171437 0  0.245948 0.180282 0  0.248976 0.189935 0  1.1 0 0  1.1 0.41 0  0.1 0.2 0  0.45 0.1 0  0.45 0.3 0  0.55 0 0  0.275 0.1 0  0.275 0.3 0  0.275 0 0  0.55 0.41 0  0 0.205 0  0.825 0 0  0.825 0.41 0  0.275 0.41 0  0.1 0.15 0  0.1875 0.1 0  0.1 0.25 0  0.1875 0.3 0  0.132322 0.2 0  0.241426 0.253518 0  0.241426 0.146482 0  0.264574 0.17974 0  0.264574 0.22026 0  0.138434 0.187348 0  0.153372 0.150948 0  0.148413 0.164094 0  0.176495 0.136535 0  0.22768 0.143571 0  0.138434 0.212652 0  0.148413 0.235906 0  0.176495 0.263465 0  0.22768 0.256429 0  0.23125 0.3 0  0.24769 0.24094 0  0.23125 0.1 0  0.24769 0.15906 0  0.26253 0.193641 0  0.190482 0.137872 0  0.166753 0.146661 0  0.157737 0.244461 0  0.190482 0.262128 0  0.203107 0.261264 0  0.253635 0.22977 0  0.203107 0.138736 0  0.253635 0.17023 0  0.261028 0.206206 0  0.167707 0.251809 0  0.143629 0.224191 0  0.215302 0.2591 0  0.270465 0.245894 0  0.215302 0.1409 0  0.270465 0.154106 0  0.284052 0.202587 0  0.14375 0.3 0  0.209375 0.3 0  0.225966 0.278501 0  0.209375 0.1 0  0.225966 0.121499 0  0.211613 0.273759 0  0.211613 0.126241 0  0.143629 0.175809 0  0.1 0.175 0  0.133484 0.164832 0  0.144491 0.249539 0  0.1 0.225 0  0.133484 0.235168 0  0.3625 0.3 0  0.25691 0.253381 0  0.25691 0.146619 0  0.277205 0.188698 0  0.184724 0.275712 0  0.237372 0.268285 0  0.184724 0.124288 0  0.237372 0.131715 0  0.197578 0.273149 0  0.193656 0.286994 0  0.197578 0.126851 0  0.193656 0.113006 0  0.122953 0.187671 0  0.118362 0.153758 0  0.155372 0.258107 0  0.122953 0.212329 0  0.118362 0.246242 0  0.276394 0.27264 0  0.276394 0.12736 0  0.280965 0.170013 0  0.253125 0.3 0  0.14375 0.1 0  0.253125 0.1 0  0.269489 0.26014 0  0.269489 0.13986 0  0.303639 0.184297 0  0.165625 0.3 0  0.134742 0.273113 0  0.257831 0.274737 0  0.255279 0.128499 0  0.3625 0.1 0  0.165625 0.1 0  0.162031 0.132368 0  0.134955 0.126405 0  0.149334 0.125568 0  0.142936 0.139597 0  0.12695 0.140259 0  0.242514 0.285501 0  0.242514 0.114499 0  0.1 0.125 0  0.117483 0.12555 0  0.11154 0.139776 0  0.121875 0.1 0  0.109143 0.1125 0  0.126805 0.114 0  0.220313 0.29129 0  0.351562 0.287369 0  0.207222 0.2866 0  0.220312 0.10871 0  0.1375 0 0  0.20625 0 0  0.207222 0.1134 0  0.11722 0.17118 0  0.1 0.1625 0  0.0778409 0.16875 0  0.0862762 0.15625 0  0 0.15375 0  0 0.1025 0  0.11722 0.22882 0  0.1 0.2375 0  0 0.3075 0  0.0862762 0.23125 0  0.0598995 0.222547 0  0.0860223 0.2125 0  0.289584 0.181469 0  0.300267 0.16446 0  0.163832 0.269071 0  0.149597 0.273325 0  0.1 0.275 0  0.268498 0.285953 0  0.31875 0.3 0  0.294154 0.254672 0  0.296875 0.3 0  0.293558 0.271845 0  0.285095 0.286799 0  0.324298 0.264316 0  0.307866 0.263745 0  0.317093 0.234901 0  0.315485 0.281219 0  0.316547 0.250625 0  0.344693 0.243731 0  0.331592 0.251147 0  0.35129 0.270663 0  0.338689 0.263683 0  0.340625 0.3 0  0.249849 0.264383 0  0.265097 0.11422 0  0.284688 0.156136 0  0.242188 0.324017 0  0.0856613 0.2625 0  0.132812 0.0612217 0  0.264062 0.0612217 0  0.198437 0.07598340000000001 0  0.0860223 0.1375 0  0.0794526 0.191089 0  0.285228 0.140397 0  0.298655 0.148737 0  0.31875 0.1 0  0.327335 0.15374 0  0.296875 0.1 0  0.312289 0.155283 0  0.313348 0.135607 0  0.321802 0.173916 0  0.298433 0.134116 0  0.112124 0.2625 0  0.127526 0.259083 0  0.121875 0.3 0  0.0682687 0.241503 0  0.1 0.2875 0  0.117762 0.28125 0  0.107813 0.3 0  0.103906 0.313849 0  0.0778409 0.28125 0  0.1375 0.41 0  0.0862762 0.29375 0  0.08886860000000001 0.24375 0  0.307812 0.338778 0  0.307812 0.292227 0  0.33216 0.279164 0  0.387888 0.266414 0  0.264063 0.31948 0  0.110937 0.07598340000000001 0  0.242188 0.07598340000000001 0  0.319914 0.11839 0  0.340625 0.1 0  0.334448 0.133793 0  0.329687 0.108539 0  0.346259 0.118491 0  0.360334 0.173636 0  0.327539 0.205033 0  0.132812 0.288712 0  0.362436 0.278836 0  0.368105 0.259418 0  0.4125 0.41 0  0.329687 0.324017 0  0.329687 0.292306 0  0.285938 0.318952 0  0.417187 0.338778 0  0.324481 0.14148 0  0.351562 0.106771 0  0.40625 0.1 0  0.341028 0.168342 0  0.319221 0.190479 0  0.335292 0.184501 0  0.305563 0.20794 0  0.220313 0.31948 0  0.132812 0.332772 0  0.0865876 0.311259 0  0.0598995 0.302453 0  0.0906541 0.343255 0  0.353543 0.255837 0  0.36574 0.237633 0  0.405007 0.254279 0  0.275795 0.352123 0  0.4125 0 0  0.35493 0.137394 0  0.366563 0.120618 0  0.35917 0.205246 0  0.198438 0.318952 0  0.0626109 0.263892 0  0.40625 0.3 0  0.354809 0.155936 0  0.386512 0.146872 0  0.373101 0.159939 0  0.384375 0.1 0  0.343394 0.19929 0  0.350682 0.185683 0  0.368101 0.189748 0  0.344016 0.221511 0  0.391108 0.213329 0  0.376279 0.204783 0  0.398843 0.182768 0  0.375804 0.222746 0  0.390665 0.196958 0  0.394004 0.23518 0  0.359883 0.222828 0  0.419908 0.204359 0  0.404243 0.204783 0  0.412615 0.224526 0  0.20625 0.41 0  0.165625 0.325257 0  0.0347982 0.244954 0  0.379558 0.247154 0  0.34165 0.147603 0  0.372264 0.136992 0  0.388988 0.121989 0  0.373437 0.108554 0  0.351562 0.31948 0  0.391367 0.16527 0  0.399572 0.223324 0  0.452011 0.227371 0  0.40877 0.239392 0  0.431491 0.237337 0  0.421224 0.250459 0  0.449619 0.262098 0  0.418865 0.276779 0  0.437063 0.252274 0  0.415673 0.263227 0  0.430988 0.266772 0  0.402767 0.273419 0  0.452967 0.244883 0  0.428125 0.3 0  0.408502 0.286186 0  0.384375 0.3 0  0.392267 0.285807 0  0.465927 0.219339 0  0.43489 0.283846 0  0.376424 0.286289 0  0.625 0.3 0  0.473533 0.205186 0  0.461713 0.255517 0  0.5375 0.3 0  0.465725 0.235405 0  0.44631 0.201425 0  0.471875 0.3 0  0.494307 0.227729 0  0.459448 0.206736 0  0.462294 0.180792 0  0.478933 0.227536 0  0.486793 0.21381 0  0.486322 0.251373 0  0.50065 0.215318 0  0.54005 0.175389 0  0.474633 0.189893 0  0.512916 0.208697 0  0.49531 0.199967 0  0.475889 0.175275 0  0.625 0.1 0  0.459311 0.153933 0  0.513645 0.242704 0  0.392892 0.248539 0  0.374815 0.271913 0  0.365974 0.14871 0  0.395312 0.109184 0  0.417061 0.123981 0  0.483196 0.277003 0  0.381967 0.179632 0  0.429898 0.219374 0  0.433473 0.206165 0  0.43149 0.181038 0  0.444208 0.215487 0  0.472985 0.247309 0  0.49375 0.3 0  0.475579 0.262714 0  0.49916 0.274293 0  0.501175 0.184809 0  0.514164 0.225681 0  0.543648 0.214977 0  0.5341630000000001 0.23481 0  0.527396 0.216171 0  0.5375 0.1 0  0.534548 0.202315 0  0.561545 0.192513 0  0.5494289999999999 0.201221 0  0.570923 0.218346 0  0.412582 0.149833 0  0.489327 0.264745 0  0.502439 0.254775 0  0.462391 0.271166 0  0.496775 0.241732 0  0.5294410000000001 0.268606 0  0.482812 0.291099 0  0.46879 0.285038 0  0.452663 0.284065 0  0.51789 0.257882 0  0.53408 0.252026 0  0.560142 0.243543 0  0.545708 0.243474 0  0.547532 0.229019 0  0.55282 0.265323 0  0.398971 0.153424 0  0.400349 0.135684 0  0.410135 0.168145 0  0.428823 0.161323 0  0.415266 0.183779 0  0.329687 0.0810483 0  0.395312 0.0612217 0  0.373437 0.318952 0  0.439062 0.324017 0  0.561816 0.229354 0  0.585029 0.239287 0  0.431827 0.139854 0  0.446796 0.168929 0  0.351562 0.07598340000000001 0  0.395313 0.318944 0  0.54337 0.150762 0  0.460937 0.31948 0  0.418412 0.137529 0  0.428125 0.1 0  0.442783 0.152332 0  0.450742 0.134294 0  0.373437 0.0805201 0  0.384383 0.342558 0  0.482812 0.318952 0  0.429239 0.127457 0  0.444274 0.117405 0  0.426548 0.113815 0  0.49375 0.1 0  0.488954 0.113984 0  0.457973 0.121842 0  0.471621 0.137346 0  0.515625 0.325257 0  0.48125 0.41 0  0.417187 0.07598340000000001 0  0.496363 0.126778 0  0.479043 0.155715 0  0.439062 0.0805201 0  0.481795 0.126919 0  0.471875 0.1 0  0.489227 0.142159 0  0.515625 0.1 0  0.520062 0.147117 0  0.501244 0.161791 0  0.505431 0.112984 0  0.505344 0.14029 0  0.526563 0.119081 0  0.5181750000000001 0.131908 0  0.539868 0.136937 0  0.460937 0.108383 0  0.474242 0.114415 0  0.460937 0.0810483 0  0.487841 0.167168 0  0.526563 0.0612217 0  0.526563 0.106406 0  0.537619 0.112743 0  0.58125 0.1 0  0.559375 0.1 0  0.482812 0.08105569999999999 0  0.471883 0.0587655 0  0.570312 0.129396 0  0.548437 0.07598340000000001 0  0.504687 0.08105569999999999 0  0.49375 0.0470127 0  0.570312 0.112663 0  0.592798 0.12103 0  0.553986 0.12103 0  0.570312 0.0805201 0  0.48125 0 0  0.114787 0.2 0  0.160769 0.284765 0  0.175816 0.288361 0  0.162602 0.116048 0  0.154687 0.07598340000000001 0  0.176562 0.0805201 0  0.0598995 0.147547 0  0.307812 0.109924 0  0.291279 0.117157 0  0.278491 0.112989 0  0.285937 0.07598340000000001 0  0.307812 0.0805201 0  0.296928 0.196743 0  0.318141 0.218507 0  0.330208 0.227509 0  0.301397 0.225668 0  0.302706 0.241401 0  0.292574 0.21424 0  0.282762 0.230935 0  0.284351 0.244775 0  0.269553 0.23261 0  0.278572 0.217242 0  0.226924 0.342606 0  0.446928 0.185396 0  0.515625 0.3 0  0.504687 0.288879 0  0.515256 0.276534 0  0.529479 0.285328 0  0.58125 0.3 0  0.541969 0.272936 0  0.559375 0.3 0  0.556796 0.282529 0  0.543473 0.287206 0  0.581429 0.267774 0  0.566728 0.271171 0  0.570869 0.255585 0  0.577404 0.283865 0  0.603125 0.3 0  0.597531 0.28035 0  0.570312 0.338778 0  0.592188 0.292492 0  0.603513 0.256094 0  0.614063 0.286265 0  0.610329 0.27064 0  0.632708 0.251285 0  0.657223 0.261594 0  0.618789 0.257807 0  0.614188 0.22987 0  0.630935 0.265614 
[...]
<PointData  Vectors="v"> 
	<DataArray  type="Float64"  Name="v"  NumberOfComponents="3" format="ascii">
0.0 0.0 0.0 0.0 0.0 0.0 0.0 0.0 0.0 0.0 0.0 0.0 0.7962427666186437 -0.1959871067075318 0.0 0.8403995352840666 0.20772796709236285 0.0 1.170534344335209 -0.06288101902445219 0.0 1.1379884669143305 0.05770405365037097 0.0 0.0 0.0 0.0 0.0 0.0 0.0 0.0 0.0 0.0 0.0 0.0 0.0 0.0008697644349441065 0.0008028386996059982 0.0 3.3027620851845636e-05 -8.115165601376078e-05 0.0 0.0004005235027563434 0.000704892835712204 0.0 0.0 0.0 0.0 0.0 0.0 0.0 0.0 0.0 0.0 0.0 0.0 0.0 0.0 0.0 0.0 0.0 0.0 0.0 0.0 0.0 0.0 0.0 0.0 0.0 0.0 0.0 0.0 0.0 0.0 0.0 0.0 0.0 0.0 0.0 0.0 0.0 0.0 0.0 0.0 0.0 0.0 0.0 0.0 0.0 0.0 0.0 0.0 0.0 0.0 0.0 0.0 0.0 0.0 0.0 0.0005682713818946809 -0.0009869409133327904 0.0 0.0006084185889260553 -0.0009167875057883753 0.0 0.0008615244710794627 -0.000804750072375662 0.0 0.0 0.0 0.0 0.0 0.0 0.0 0.0 0.0 0.0 0.0 0.0 0.0 0.0 0.0 0.0 0.7613358710971588 -0.0013197221401651063 0.0 1.274004243637236 0.08187688217296339 0.0 1.2669843855841278 -0.0776514975994915 0.0 0.0 0.0 0.0 1.3536992610369076 -0.13293207807359964 0.0 1.3578837659004892 0.15494346743230786 0.0 0.0 0.0 0.0 0.0 0.0 0.0 1.0 0.0 0.0 0.0 0.0 0.0 0.0 0.0 0.0 0.0 0.0 0.0 0.8426109925903211 -0.2319102421390705 0.0 1.151428619550228 -0.3442636055060971 0.0 0.8637838806314349 0.22926682552573982 0.0 1.1662631484005204 0.353965391800878 0.0 0.42824324339832215 -0.004012573216777418 0.0 0.16537933540775093 0.061668259282053904 0.0 0.17038216326474148 -0.060889863739882776 0.0 -0.028605599652333266 -0.03935970073262092 0.0 -0.02722544439854959 0.037556473483145995 0.0 0.33439253078326386 -0.2798934133267897 0.0 0.8579410537020381 -0.6734911531605017 0.0 0.6400324725120442 -0.6882010061566387 0.0 1.206232685837606 -0.6133015093597354 0.0 0.41581126648404415 -0.06898871102409464 0.0 0.3304479142477357 0.2687045106606037 0.0 0.6428381739416748 0.669295185405854 0.0 1.185221211587505 0.6153379959689783 0.0 0.4084995381342162 0.07085240145937316 0.0 1.3130624922501906 0.2606834341643719 0.0 0.33694741934229266 0.26184624427685793 0.0 1.3026039236261988 -0.24041012822052837 0.0 0.3247551239922285 -0.2467565477616459 0.0 -0.03464649575807961 -0.017454901451228928 0.0 1.125070549658071 -0.3987692449445766 0.0 1.0932864234366673 -0.7243776663119808 0.0 0.8520820192502777 0.7707321644755869 0.0 1.1316113828647771 0.3995490026758128 0.0 0.7597587769669323 0.1859818906597451 0.0 0.11096620298205187 0.05343382793111315 0.0 0.7695832564657901 -0.18189524459857817 0.0 0.11322776100866296 -0.051400622201256164 0.0 -0.030708420476004944 0.019912399405085705 0.0 1.0275725292039282 0.718884922597477 0.0 0.4423792273703267 0.5291616441011217 0.0 0.4583697409032489 0.17759043590981707 0.0 0.28215701581665065 0.07091430915623206 0.0 0.46430378500245434 -0.17347332410200858 0.0 0.2853049249277546 -0.06612018080169207 0.0 -0.07727790929124073 0.0023539528680856995 0.0 0.9654713006650084 0.31735048323162673 0.0 1.2604990721320866 0.31300534586085127 0.0 1.2453184280345315 0.28853366168773187 0.0 1.2348393169765801 -0.30755034774267065 0.0 1.2479478484658788 -0.2808743204954859 0.0 1.2204812805331477 0.33083757930695623 0.0 1.2263253840953063 -0.32254366891826053 0.0 0.4429168534213794 -0.544623863157579 0.0 0.8020290523185025 -0.13965990871788425 0.0 0.6715367419838382 -0.4197363002275252 0.0 0.8773841444818551 0.5938113217807568 0.0 0.7993090652332406 0.14276860099168043 0.0 0.6764980759611249 0.42010998527933624 0.0 1.2926707755183726 -0.006770230378532266 0.0 0.2986043791735461 0.14853719322384512 0.0 0.29854594481972274 -0.1377353811275871 0.0 -0.05602474078761383 -0.013005540724900358 0.0 1.2651443393537185 0.4716993245679784 0.0 0.7687746557357598 0.12018542330764954 0.0 1.261203225430832 -0.4732342920340564 0.0 0.7891509833347452 -0.11528450250731442 0.0 1.2757667310527487 0.4179272450935965 0.0 1.2540306365294291 0.4009795213649664 0.0 1.2717052579861963 -0.41416126216918964 0.0 1.2447481297981708 -0.3810334215229745 0.0 0.5835422434390032 -0.1605664931429288 0.0 0.7964562305352695 -0.3318345836823971 0.0 1.0104643409825171 0.6037616855647462 0.0 0.5917552977299358 0.1505692901656002 0.0 0.8125662760319073 0.3316659893259835 0.0 0.7462412491866185 0.08133449533885094 0.0 0.7835456759625267 -0.07346214715137177 0.0 0.05403410546117027 -0.02182812412358377 0.0 1.3631371021587537 0.2073378583852424 0.0 0.9298442465387439 -0.3222099590178862 0.0 1.344499813823258 -0.18998844281222008 0.0 0.4136061555064521 0.09295679563525693 0.0 0.430251177609546 -0.0798422684419225 0.0 -0.05527923139371974 -0.007436587768242101 0.0 1.0573553527952153 0.35391555314798695 0.0 0.9431682854614889 0.3914273889979268 0.0 0.9222318906087623 0.11240191781426602 0.0 0.8242479898099843 -0.08680064346609731 0.0 1.306884552744273 0.017276032332777965 0.0 1.027537771887605 -0.3451566859159653 0.0 1.0745481960975067 -0.5703232839972009 0.0 0.9301633317298852 -0.3893972403155474 0.0 0.997507009516043 -0.438643407956743 0.0 0.9329708982580867 -0.5428437565713172 0.0 0.8655586754068619 -0.4065153074937873 0.0 1.273290672936353 0.2326497262072984 0.0 1.2715612125291194 -0.21948676320243676 0.0 0.8526697954148921 -0.2356407916082712 0.0 0.8790710084997873 -0.3099599051965875 0.0 0.852914877279742 -0.2990601622490577 0.0 0.8514235150587909 -0.2563955818669956 0.0 0.85422658237513 -0.25278238693110405 0.0 0.896295169611621 -0.31946428653929415 0.0 1.3291624594216382 0.3153093788005134 0.0 1.0846411805234846 -0.0019841335660311975 0.0 1.3146193027383795 0.3621431201996044 0.0 1.3213337769420523 -0.2958908545982375 0.0 0.0 0.0 0.0 0.0 0.0 0.0 1.2994799179748187 -0.3493431247381699 0.0 0.7142605085817055 -0.26734825062609985 0.0 0.8204049887881288 -0.21078818968315 0.0 0.8711789230071615 -0.11077615747849762 0.0 0.8624510680202205 -0.16378657563918697 0.0 0.9375 0.0 0.0 0.7500000000000001 0.0 0.0 0.7224794309025958 0.265271734611917 0.0 0.8240415771528474 0.20011325394831836 0.0 0.7499999999999999 0.0 0.0 0.869719986493763 0.1277941937326253 0.0 0.9287142526955716 0.04281528237202749 0.0 0.8481167937077084 0.045040741231175796 0.0 -0.03555320471806617 -0.011140291237842251 0.0 0.09438194487867219 -0.016820014786422217 0.0 1.1150569206119259 0.5547237740368013 0.0 1.0190334286588403 0.4730984692082551 0.0 0.8809719102187937 0.24544071112988525 0.0 1.1998810890089355 0.1391738277024201 0.0 1.3286701857602226 0.06011186991373191 0.0 0.3594877772858397 0.038484179906848104 0.0 1.3559183990660733 0.10308777701048402 0.0 0.7157933889928607 0.054334430858136155 0.0 1.171115974122955 0.10047159553090099 0.0 0.518457003771626 0.016103890731368184 0.0 0.5004885443748787 0.030314159669642942 0.0 0.07324638525066188 0.012326618461091695 0.0 0.9570614342120448 0.03481366845147399 0.0 0.262603292756488 0.02180319663704319 0.0 0.16736112375939313 0.00821612837593934 0.0 0.27263883832482855 0.014319575453647839 0.0 0.6688208376974807 -0.004321773215661192 0.0 0.5018708481553724 0.007279104308910035 0.0 1.3155682584591342 0.019652974961259416 0.0 0.542204631042327 0.06151035347771169 0.0 1.2303096084031748 -0.14225278417190526 0.0 0.20745594173254167 -0.037822057110624266 0.0 1.2055859873803776 0.17349645095154076 0.0 0.8828252618561881 0.1797144698648037 0.0 0.7011232188769793 -0.16794055539537558 0.0 1.115485275517061 -0.09415388392396663 0.0 1.0385250494804157 -0.22368794804998776 0.0 0.8637610718091394 -0.1826638580181676 0.0 0.8754248554837852 -0.025617957171441337 0.0 0.44382204562657074 -0.04903723630066985 0.0 0.2957740871309018 -0.03319682426154335 0.0 1.3292537782686955 -0.041563187800519395 0.0 0.21202449251627542 -0.0126301882383139 0.0 1.3556762017688408 -0.08624107696818564 0.0 0.19551976883711847 -0.018457946473190334 0.0 0.5389521459500468 -0.015795720393480366 0.0 -0.0006312762835292425 -0.010016301633242861 0.0 0.5751776917177831 -0.031982989375508766 0.0 0.8788965562719758 0.29712362588575114 0.0 0.8795705285406795 0.4107386013565359 0.0 0.8850872251692306 0.2702927607372663 0.0 0.9122212341608648 0.1098268922593456 0.0 0.8651768370104561 0.22326328877058807 0.0 0.904729297945292 0.30368210885680763 0.0 0.857232098920136 0.23348598579899968 0.0 0.8020182551578926 0.1833499018954271 0.0 0.8670534143053023 0.16150563781293567 0.0 0.0 0.0 0.0 0.8415150650047705 0.17666719640433795 0.0 0.8706590009150192 0.17099819265875557 0.0 1.2129813447971374 0.0499172439555614 0.0 1.2374694095413645 0.06518849038427166 0.0 0.8910775984372376 0.01355766797904854 0.0 0.5966642547218024 -0.02518190797305831 0.0 1.2796126315574743 0.1471361960383618 0.0 0.7176222657846022 -0.17371801042273236 0.0 1.1779371978411057 -0.1644593504564387 0.0 0.9998228580095816 -0.019605200148213306 0.0 1.323847087166056 -0.007213388295934053 0.0 0.5885350254529469 0.00030342892528540055 0.0 1.22111084177397 -0.012142986415695098 0.0 0.9848981130809665 0.009833536679325364 0.0 -0.0033140084773203185 -0.005172524696475647 0.0 -0.09631663878115922 0.0011854254661988874 0.0 0.9448598350339463 0.3411811815995187 0.0 0.8786941531833168 -0.01785195113040662 0.0 0.4309706716869594 -0.007644642091058273 0.0 0.0 0.0 0.0 1.3285362347699194 0.037742227370867056 0.0 1.2124583353882108 0.025275796787070242 0.0 1.3169794315299719 0.11472831216472701 0.0 1.2526781081530718 -0.04435060160744648 0.0 0.4174211768216786 -0.013479358908093264 0.0 1.2288701388188517 0.011192570100625363 0.0 1.29045843977522 0.05729607647501202 0.0 0.04256743986918693 -0.008297686612900602 0.0 -0.08313454098931752 -0.004503038742592582 0.0 -0.06739909852477362 -0.0063386871865015754 0.0 -0.08236785947644702 0.002591350674427418 0.0 1.1856645379294946 0.21959193118486958 0.0 0.7774277649380179 0.19843103075916999 0.0 0.77790828156739 0.15420207711881895 0.0 0.7857347799563134 0.10688569820335941 0.0 0.6205618092650911 0.11095688337060655 0.0 0.356994310923344 0.0016537007376272019 0.0 0.09661039327881617 0.004085470404471546 0.0 0.3681600974473466 -0.01984355477954287 0.0 1.071798994097271 0.07678017280097706 0.0 0.0 0.0 0.0 0.5227534998902716 0.012388650086646075 0.0 0.9333848962075425 0.030111637132409937 0.0 -0.10804320012899209 0.0013674929477585803 0.0 1.0969364836610502 0.2669067086631924 0.0 0.9003333833712922 0.11237232588333392 0.0 1.28071087780917 -0.04919517734058651 0.0 0.18910002766131614 -0.002108090641137062 0.0 0.36066965060934936 0.019685101174773425 0.0 0.144771188422753 0.00217187589632531 0.0 1.3026716198409736 0.0398711208405925 0.0 -0.10566531608297523 -0.0009235535117160037 0.0 -0.07680221813207706 -0.005150328200270788 0.0 -0.09645461869351622 -0.002986791850596478 0.0 -0.04184656390023135 0.006757865849762251 0.0 -0.09287281375912952 0.002094429004945481 0.0 -0.11388795746703152 0.001177499052798144 0.0 -0.06488368064505391 2.2892746719339072e-05 0.0 -0.038830626773516314 0.00401111717119688 0.0 -0.11742198862384182 -0.000454702657085033 0.0 0.0784566197858044 -0.001339591070737913 0.0 -0.03661944126352757 0.005835577439290245 0.0 -0.119684572842257 0.00014824249473185423 0.0 -0.11882851225654877 0.000637646257820618 0.0 -0.020514505073387177 -0.0016163548071853585 0.0 0.0 0.0 0.0 0.9463762147194161 0.2553837603710568 0.0 0.9513527812474422 0.04008900538138306 0.0 0.2283981717421555 -0.003880277801110961 0.0 0.31195266781408243 -0.0035586601469632267 0.0 0.5466902755685703 0.022276383147302736 0.0 0.9134693398891076 0.04407733321299514 0.0 1.192491200033677 0.03538196981223698 0.0 1.353684178675826 0.014958353216719586 0.0 0.0894360644955157 0.004492419635120856 0.0 -0.03288724778161986 0.0009408671170669554 0.0 0.02648955487165149 -0.011869381473196782 0.0 0.13865645156529693 -0.008077809457364341 0.0 0.12886784000107876 -0.013497708301499482 0.0 0.31871564755647536 -0.022751710930909826 0.0 0.5781241945758743 -0.05118367339755451 0.0 0.8611187215257504 -0.05200579134076362 0.0 0.36990472116272305 -0.03163215696239845 0.0 0.5580016665955542 -0.0352346380330852 0.0 0.6531030916899695 -0.04746873998368769 0.0 0.7719186706558501 -0.040407249286988835 0.0 0.26232959017746105 -0.028644778531438368 0.0 1.273416597148802 -0.06452052830754919 0.0 1.059324673696863 -0.05143860628243087 0.0 1.2866323547252816 -0.028704817890464154 0.0 1.0495357076311382 -0.03920191267269603 0.0 -0.038425989545443615 -0.009404518418131006 0.0 1.0284634207679781 -0.0670567621896175 0.0 1.060449849259394 -0.029539137426715142 0.0 1.2262742420439663 -0.10060783271359756 0.0 -0.10412879688464834 -0.0028428631684598786 0.0 0.46333897046145794 -0.0463669379693925 0.0 1.250539086861065 -0.10520309016756262 0.0 0.13513454499372257 -0.022594459660429417 0.0 -0.11803592509955248 -0.0002280369270780485 0.0 1.2621362269857692 -0.08799616960767288 0.0 0.06744436628975693 -0.022846552672426104 0.0 -0.10707464299658948 -0.0025719412849456854 0.0 -0.023537875320719742 0.010227457650675228 0.0 0.049767811303584986 -0.018997206922710258 0.0 -0.06286906362358428 -0.009359419620904526 0.0 0.42136895171504124 -0.05049008730978828 0.0 -0.04276251873611983 -0.012614912370778117 0.0 0.1140088729226668 0.02672974809681681 0.0 -0.07855072930351883 0.00521704654327768 0.0 -0.0678748572043464 -0.008615431473888456 0.0 -0.09481035994484799 -0.0009774170944266336 0.0 0.04160799299267134 0.016672676349091094 0.0 1.218053172356785 0.10242305550872509 0.0 0.32742140423588967 0.03776602209178997 0.0 0.3074099124938376 -0.046838167323154635 0.0 0.25916529289250506 -0.00949140302805331 0.0 0.7099278594943208 -0.019964299247881723 0.0 0.30856989281516256 0.007183942297165474 0.0 1.176664294077357 0.053686602954283826 0.0 0.8891314795360739 0.06182909138654727 0.0 0.9310673926020404 -0.0838523323419698 0.0 -0.046325309461022444 -0.0021393865631693845 0.0 -0.055189345643559894 -0.003074134458192361 0.0 -0.11530298181641511 -0.0005990392512421277 0.0 -0.04328533273099102 0.005623773696394742 0.0 -0.07554254499930126 -0.0038807560097662984 0.0 0.32892929136358584 -0.03970932143749837 0.0 1.2584775909462862 -0.0942405278483562 0.0 0.628771819354862 -0.0626994284496677 0.0 0.8953702949338888 -0.08712319431347781 0.0 -0.025590619718530164 0.010971625538849927 0.0 0.065062271172703 -0.025093707417998965 0.0 -0.0034051937739767993 -0.01737787457541957 0.0 0.21141754257759848 -0.04058415434450255 0.0 -0.011884897493376918 -0.017043248211337514 0.0 1.2527117323595005 0.10382576169757794 0.0 -0.06248866367863877 -0.0038242870872248562 0.0 -0.011834628053338247 0.007661593095671465 0.0 -0.047559362180241684 -0.0027698147766265805 0.0 0.05711354664575058 -0.023230199894019653 0.0 0.3381058921233963 0.026566139569395596 0.0 0.6903899427172712 -0.0714653814777707 0.0 0.5096821296780895 -0.061586917155562346 0.0 0.7893249757454586 -0.06892556732195303 0.0 0.2677703024792689 -0.04022599949921559 0.0 0.8200538916167663 -0.08866474064735323 0.0 1.1673487457529461 -0.0919141068737356 0.0 1.068945532924033 -0.08438521815051431 0.0 1.0422425160093152 -0.07547736692871836 0.0 0.5938166603910876 -0.07112351768262637 0.0 0.5051285994760031 -0.06598079708232116 0.0 0.39196064398128483 -0.05800205095312461 0.0 0.36801032399166894 -0.05540934361238994 0.0 0.1473432439970935 -0.03489296329483761 0.0 0.7867092762885035 -0.08843227045803624 0.0 0.26084268301121305 0.016839698821601034 0.0 0.608053556695047 0.039359826994182286 0.0 0.06830750576602405 0.008208545297834614 0.0 0.17237006300435914 0.01956772807920609 0.0 -0.06807583822712328 0.002145459973864026 0.0 1.3326104867297777 -0.024025598511915092 0.0 1.2171656828355069 0.041171799734909226 0.0 1.3552561099709817 -0.011733612147677142 0.0 1.327023386895677 -0.06347619443572333 0.0 0.17147419924202317 -0.03721905511301033 0.0 0.3570842698549551 -0.05413591885337558 0.0 0.558667214801156 0.04793281386547088 0.0 0.08855746896627868 0.016648133233678284 0.0 1.3078428829465218 0.004501290795126365 0.0 1.348499350325705 -0.03276865492699051 0.0 0.5152747057501441 0.06470267491527133 0.0 1.3273890307919145 -0.07708253447444997 0.0 0.5891146395845269 0.04465800722153973 0.0 1.2812155964534462 0.07177378884402497 0.0 0.3327563012354974 0.03469183170046171 0.0 0.7029651928222524 0.0638736688541606 0.0 1.3341430494254025 0.02455987210397874 0.0 1.2313937636517491 -0.024052639223487927 0.0 1.3178071664438133 -0.08708269705274789 0.0 0.824633674203448 0.06203058805220455 0.0 1.0464352428770456 0.07858900251663865 0.0 1.1061747594606053 0.07252027296182535 0.0 1.2650449906799035 0.09566771277003613 0.0 1.1259756028870938 0.09480280609438729 0.0 0.9729994658273357 0.08047063010381995 0.0 0.666806939662951 0.06640463409247707 0.0 1.272950283435482 -0.08992899766479431 0.0 0.0 0.0 0.0 1.306892587284304 0.057471519768908665 0.0 0.9138097569265857 0.08701109470757407 0.0 0.3247852966882876 0.04110744208374611 0.0 1.3146098256225074 0.07073957014760503 0.0 0.8966462070637057 0.08348024669594062 0.0 1.268873978825016 0.08932209826861472 0.0 0.595861094289866 0.06444537673049365 0.0 1.2605721869215794 0.10051215785673263 0.0 0.5466305001602887 0.06489950778128903 0.0 0.2557233950283395 0.038049298887261704 0.0 1.1440124758495627 0.09871978980601792 0.0 0.6584850597070131 0.0720404513097035 0.0 1.0693525201615046 0.0998487184509193 0.0 0.841035970527541 0.08709872510920055 0.0 0.7721292686034239 0.0849226304181492 0.0 1.1936558827765436 0.08744967208419471 0.0 1.113697457347168 0.0900589318213164 0.0 1.30500215093695 0.08052029621186356 0.0 0.15666009912609682 0.02758015135382776 0.0 1.1533327577152266 0.07726462044864779 0.0 1.2147201076285716 0.10298833875517258 0.0 1.1552375061011482 0.10436176089282194 0.0 1.2344482193912278 0.10571130010599183 0.0 1.2437394279351917 0.10645885057873064 0.0 1.2903996127272623 0.08534199669588909 0.0 1.1826410677346264 0.0671985637916673 0.0 0.942002360554394 0.09811938015962385 0.0 1.2307193825388292 0.09006067518722015 0.0 1.2786180779815952 0.08854487974509119 0.0 1.0459605169515844 0.06395957833784076 0.0 1.1612575769066515 0.10628303642674188 0.0 1.0777659059233629 0.10600815719370806 0.0 1.056846598731218 0.10298455164416387 0.0 1.234222919049024 0.09489158762006818 0.0 0.0 0.0 0.0 0.6445147287348525 -0.0056243015057042016 0.0 1.07784801525397 0.4341642767342901 0.0 1.1669223808062057 0.42214700087833107 0.0 1.0823024099827343 -0.42675369570251265 0.0 0.8656106872083077 -0.2269954296896984 0.0 0.9788981264848153 -0.2554685423710177 0.0 0.8923738525170142 -0.08500605949744437 0.0 1.2235040180237242 -0.052096892543993696 0.0 1.08213199703218 -0.06404806240790227 0.0 1.1990513337896263 -0.10456831385150238 0.0 1.2651431271710376 -0.08441882328938685 0.0 1.3152991263011162 -0.05344687713969434 0.0 -0.0850316445459444 -0.002414776628618093 0.0 -0.04983203078263073 0.006907213840429059 0.0 0.0029063430453567097 0.009291391315696309 0.0 0.0019286771647242678 0.010916133736914533 0.0 0.1521732442039097 0.025981324574170066 0.0 -0.05833869998475643 0.007648181697889734 0.0 0.06396091421511699 0.021277217442922155 0.0 0.22451078975239658 0.037101150997160215 0.0 0.08799346176684397 0.03879149129539678 0.0 -0.03732690547937498 0.014989568242660126 0.0 1.0346763177157707 0.16070426279137928 0.0 -0.06704774499655636 0.005577740566869911 0.0 1.2547834547204746 -0.10096984670197999 0.0 1.1430788569964614 -0.09899425635447051 0.0 0.9525311569626349 -0.09352005197817792 0.0 1.1047624824460898 -0.10244087117159031 0.0 1.2387826838834597 -0.1041639638352906 0.0 0.9143295020792641 -0.0957530913938813 0.0 1.246389587143235 -0.10532911598561483 0.0 1.0779769809905448 -0.10407529026091 0.0 1.1332712862736056 -0.10471513542604424 0.0 0.8638191735280661 -0.09310290242209884 0.0 0.9078257399263708 -0.09625919496598873 0.0 0.627616515957862 -0.07718933440404288 0.0 1.1038944616731077 -0.10541753935005956 0.0 1.2327609997548918 -0.10342068546816034 0.0 1.0682189748381035 -0.10242895670021199 0.0 1.1679006515863268 -0.0844670474836133 0.0 1.192429135611409 -0.10582598118196963 0.0 0.6820472712988026 -0.07926028765035631 0.0 1.1403292885339076 -0.10221225094493638 0.0 0.9384358845857916 -0.09538349140299976 0.0 0.635658520886323