<?xml version="1.0"?>
<VTKFile type="UnstructuredGrid"  version="0.1"  >
<UnstructuredGrid>
<Piece  NumberOfPoints="1289" NumberOfCells="2413">
<Points>
<DataArray  type="Float64"  NumberOfComponents="3"  format="ascii">0 0 0  0 0.41 0  2.2 0.41 0  2.2 0 0  0.1 0.1 0  0.1 0.3 0  0.8 0.3 0  0.8 0.1 0  0.25 0.2 0  0.248976 0.210065 0  0.245948 0.219718 0  0.241038 0.228563 0  0.234448 0.23624 0  0.226448 0.242432 0  0.217365 0.246888 0  0.207571 0.249423 0  0.197468 0.249936 0  0.187467 0.248404 0  0.17798 0.24489 0  0.169395 0.239539 0  0.162062 0.232569 0  0.156283 0.224265 0  0.152293 0.214968 0  0.150257 0.205058 0  0.150257 0.194942 0  0.152293 0.185032 0  0.156283 0.175735 0  0.162062 0.167431 0  0.169395 0.160461 0  0.17798 0.15511 0  0.187467 0.151596 0  0.197468 0.150064 0  0.207571 0.150577 0  0.217365 0.153112 0  0.226448 0.157568 0  0.234448 0.16376 0  0.241038 0.171437 0  0.245948 0.180282 0  0.248976 0.189935 0  1.1 0 0  1.1 0.41 0  0.1 0.2 0  0.45 0.1 0  0.45 0.3 0  0.55 0 0  0.275 0.1 0  0.275 0.3 0  0.275 0 0  0.55 0.41 0  0 0.205 0  0.825 0 0  0.825 0.41 0  0.275 0.41 0  0.1 0.15 0  0.1875 0.1 0  0.1 0.25 0  0.1875 0.3 0  0.132322 0.2 0  0.241426 0.253518 0  0.241426 0.146482 0  0.264574 0.17974 0  0.264574 0.22026 0  0.138434 0.187348 0  0.153372 0.150948 0  0.148413 0.164094 0  0.176495 0.136535 0  0.22768 0.143571 0  0.138434 0.212652 0  0.148413 0.235906 0  0.176495 0.263465 0  0.22768 0.256429 0  0.23125 0.3 0  0.24769 0.24094 0  0.23125 0.1 0  0.24769 0.15906 0  0.26253 0.193641 0  0.190482 0.137872 0  0.166753 0.146661 0  0.157737 0.244461 0  0.190482 0.262128 0  0.203107 0.261264 0  0.253635 0.22977 0  0.203107 0.138736 0  0.253635 0.17023 0  0.261028 0.206206 0  0.167707 0.251809 0  0.143629 0.224191 0  0.215302 0.2591 0  0.270465 0.245894 0  0.215302 0.1409 0  0.270465 0.154106 0  0.284052 0.202587 0  0.14375 0.3 0  0.209375 0.3 0  0.225966 0.278501 0  0.209375 0.1 0  0.225966 0.121499 0  0.211613 0.273759 0  0.211613 0.126241 0  0.143629 0.175809 0  0.1 0.175 0  0.133484 0.164832 0  0.144491 0.249539 0  0.1 0.225 0  0.133484 0.235168 0  0.3625 0.3 0  0.25691 0.253381 0  0.25691 0.146619 0  0.277205 0.188698 0  0.184724 0.275712 0  0.237372 0.268285 0  0.184724 0.124288 0  0.237372 0.131715 0  0.197578 0.273149 0  0.193656 0.286994 0  0.197578 0.126851 0  0.193656 0.113006 0  0.122953 0.187671 0  0.118362 0.153758 0  0.155372 0.258107 0  0.122953 0.212329 0  0.118362 0.246242 0  0.276394 0.27264 0  0.276394 0.12736 0  0.280965 0.170013 0  0.253125 0.3 0  0.14375 0.1 0  0.253125 0.1 0  0.269489 0.26014 0  0.269489 0.13986 0  0.303639 0.184297 0  0.165625 0.3 0  0.134742 0.273113 0  0.257831 0.274737 0  0.255279 0.128499 0  0.3625 0.1 0  0.165625 0.1 0  0.162031 0.132368 0  0.134955 0.126405 0  0.149334 0.125568 0  0.142936 0.139597 0  0.12695 0.140259 0  0.242514 0.285501 0  0.242514 0.114499 0  0.1 0.125 0  0.117483 0.12555 0  0.11154 0.139776 0  0.121875 0.1 0  0.109143 0.1125 0  0.126805 0.114 0  0.220313 0.29129 0  0.351562 0.287369 0  0.207222 0.2866 0  0.220312 0.10871 0  0.1375 0 0  0.20625 0 0  0.207222 0.1134 0  0.11722 0.17118 0  0.1 0.1625 0  0.0778409 0.16875 0  0.0862762 0.15625 0  0 0.15375 0  0 0.1025 0  0.11722 0.22882 0  0.1 0.2375 0  0 0.3075 0  0.0862762 0.23125 0  0.0598995 0.222547 0  0.0860223 0.2125 0  0.289584 0.181469 0  0.300267 0.16446 0  0.163832 0.269071 0  0.149597 0.273325 0  0.1 0.275 0  0.268498 0.285953 0  0.31875 0.3 0  0.294154 0.254672 0  0.296875 0.3 0  0.293558 0.271845 0  0.285095 0.286799 0  0.324298 0.264316 0  0.307866 0.263745 0  0.317093 0.234901 0  0.315485 0.281219 0  0.316547 0.250625 0  0.344693 0.243731 0  0.331592 0.251147 0  0.35129 0.270663 0  0.338689 0.263683 0  0.340625 0.3 0  0.249849 0.264383 0  0.265097 0.11422 0  0.284688 0.156136 0  0.242188 0.324017 0  0.0856613 0.2625 0  0.132812 0.0612217 0  0.264062 0.0612217 0  0.198437 0.07598340000000001 0  0.0860223 0.1375 0  0.0794526 0.191089 0  0.285228 0.140397 0  0.298655 0.148737 0  0.31875 0.1 0  0.327335 0.15374 0  0.296875 0.1 0  0.312289 0.155283 0  0.313348 0.135607 0  0.321802 0.173916 0  0.298433 0.134116 0  0.112124 0.2625 0  0.127526 0.259083 0  0.121875 0.3 0  0.0682687 0.241503 0  0.1 0.2875 0  0.117762 0.28125 0  0.107813 0.3 0  0.103906 0.313849 0  0.0778409 0.28125 0  0.1375 0.41 0  0.0862762 0.29375 0  0.08886860000000001 0.24375 0  0.307812 0.338778 0  0.307812 0.292227 0  0.33216 0.279164 0  0.387888 0.266414 0  0.264063 0.31948 0  0.110937 0.07598340000000001 0  0.242188 0.07598340000000001 0  0.319914 0.11839 0  0.340625 0.1 0  0.334448 0.133793 0  0.329687 0.108539 0  0.346259 0.118491 0  0.360334 0.173636 0  0.327539 0.205033 0  0.132812 0.288712 0  0.362436 0.278836 0  0.368105 0.259418 0  0.4125 0.41 0  0.329687 0.324017 0  0.329687 0.292306 0  0.285938 0.318952 0  0.417187 0.338778 0  0.324481 0.14148 0  0.351562 0.106771 0  0.40625 0.1 0  0.341028 0.168342 0  0.319221 0.190479 0  0.335292 0.184501 0  0.305563 0.20794 0  0.220313 0.31948 0  0.132812 0.332772 0  0.0865876 0.311259 0  0.0598995 0.302453 0  0.0906541 0.343255 0  0.353543 0.255837 0  0.36574 0.237633 0  0.405007 0.254279 0  0.275795 0.352123 0  0.4125 0 0  0.35493 0.137394 0  0.366563 0.120618 0  0.35917 0.205246 0  0.198438 0.318952 0  0.0626109 0.263892 0  0.40625 0.3 0  0.354809 0.155936 0  0.386512 0.146872 0  0.373101 0.159939 0  0.384375 0.1 0  0.343394 0.19929 0  0.350682 0.185683 0  0.368101 0.189748 0  0.344016 0.221511 0  0.391108 0.213329 0  0.376279 0.204783 0  0.398843 0.182768 0  0.375804 0.222746 0  0.390665 0.196958 0  0.394004 0.23518 0  0.359883 0.222828 0  0.419908 0.204359 0  0.404243 0.204783 0  0.412615 0.224526 0  0.20625 0.41 0  0.165625 0.325257 0  0.0347982 0.244954 0  0.379558 0.247154 0  0.34165 0.147603 0  0.372264 0.136992 0  0.388988 0.121989 0  0.373437 0.108554 0  0.351562 0.31948 0  0.391367 0.16527 0  0.399572 0.223324 0  0.452011 0.227371 0  0.40877 0.239392 0  0.431491 0.237337 0  0.421224 0.250459 0  0.449619 0.262098 0  0.418865 0.276779 0  0.437063 0.252274 0  0.415673 0.263227 0  0.430988 0.266772 0  0.402767 0.273419 0  0.452967 0.244883 0  0.428125 0.3 0  0.408502 0.286186 0  0.384375 0.3 0  0.392267 0.285807 0  0.465927 0.219339 0  0.43489 0.283846 0  0.376424 0.286289 0  0.625 0.3 0  0.473533 0.205186 0  0.461713 0.255517 0  0.5375 0.3 0  0.465725 0.235405 0  0.44631 0.201425 0  0.471875 0.3 0  0.494307 0.227729 0  0.459448 0.206736 0  0.462294 0.180792 0  0.478933 0.227536 0  0.486793 0.21381 0  0.486322 0.251373 0  0.50065 0.215318 0  0.54005 0.175389 0  0.474633 0.189893 0  0.512916 0.208697 0  0.49531 0.199967 0  0.475889 0.175275 0  0.625 0.1 0  0.459311 0.153933 0  0.513645 0.242704 0  0.392892 0.248539 0  0.374815 0.271913 0  0.365974 0.14871 0  0.395312 0.109184 0  0.417061 0.123981 0  0.483196 0.277003 0  0.381967 0.179632 0  0.429898 0.219374 0  0.433473 0.206165 0  0.43149 0.181038 0  0.444208 0.215487 0  0.472985 0.247309 0  0.49375 0.3 0  0.475579 0.262714 0  0.49916 0.274293 0  0.501175 0.184809 0  0.514164 0.225681 0  0.543648 0.214977 0  0.5341630000000001 0.23481 0  0.527396 0.216171 0  0.5375 0.1 0  0.534548 0.202315 0  0.561545 0.192513 0  0.5494289999999999 0.201221 0  0.570923 0.218346 0  0.412582 0.149833 0  0.489327 0.264745 0  0.502439 0.254775 0  0.462391 0.271166 0  0.496775 0.241732 0  0.5294410000000001 0.268606 0  0.482812 0.291099 0  0.46879 0.285038 0  0.452663 0.284065 0  0.51789 0.257882 0  0.53408 0.252026 0  0.560142 0.243543 0  0.545708 0.243474 0  0.547532 0.229019 0  0.55282 0.265323 0  0.398971 0.153424 0  0.400349 0.135684 0  0.410135 0.168145 0  0.428823 0.161323 0  0.415266 0.183779 0  0.329687 0.0810483 0  0.395312 0.0612217 0  0.373437 0.318952 0  0.439062 0.324017 0  0.561816 0.229354 0  0.585029 0.239287 0  0.431827 0.139854 0  0.446796 0.168929 0  0.351562 0.07598340000000001 0  0.395313 0.318944 0  0.54337 0.150762 0  0.460937 0.31948 0  0.418412 0.137529 0  0.428125 0.1 0  0.442783 0.152332 0  0.450742 0.134294 0  0.373437 0.0805201 0  0.384383 0.342558 0  0.482812 0.318952 0  0.429239 0.127457 0  0.444274 0.117405 0  0.426548 0.113815 0  0.49375 0.1 0  0.488954 0.113984 0  0.457973 0.121842 0  0.471621 0.137346 0  0.515625 0.325257 0  0.48125 0.41 0  0.417187 0.07598340000000001 0  0.496363 0.126778 0  0.479043 0.155715 0  0.439062 0.0805201 0  0.481795 0.126919 0  0.471875 0.1 0  0.489227 0.142159 0  0.515625 0.1 0  0.520062 0.147117 0  0.501244 0.161791 0  0.505431 0.112984 0  0.505344 0.14029 0  0.526563 0.119081 0  0.5181750000000001 0.131908 0  0.539868 0.136937 0  0.460937 0.108383 0  0.474242 0.114415 0  0.460937 0.0810483 0  0.487841 0.167168 0  0.526563 0.0612217 0  0.526563 0.106406 0  0.537619 0.112743 0  0.58125 0.1 0  0.559375 0.1 0  0.482812 0.08105569999999999 0  0.471883 0.0587655 0  0.570312 0.129396 0  0.548437 0.07598340000000001 0  0.504687 0.08105569999999999 0  0.49375 0.0470127 0  0.570312 0.112663 0  0.592798 0.12103 0  0.553986 0.12103 0  0.570312 0.0805201 0  0.48125 0 0  0.114787 0.2 0  0.160769 0.284765 0  0.175816 0.288361 0  0.162602 0.116048 0  0.154687 0.07598340000000001 0  0.176562 0.0805201 0  0.0598995 0.147547 0  0.307812 0.109924 0  0.291279 0.117157 0  0.278491 0.112989 0  0.285937 0.07598340000000001 0  0.307812 0.0805201 0  0.296928 0.196743 0  0.318141 0.218507 0  0.330208 0.227509 0  0.301397 0.225668 0  0.302706 0.241401 0  0.292574 0.21424 0  0.282762 0.230935 0  0.284351 0.244775 0  0.269553 0.23261 0  0.278572 0.217242 0  0.226924 0.342606 0  0.446928 0.185396 0  0.515625 0.3 0  0.504687 0.288879 0  0.515256 0.276534 0  0.529479 0.285328 0  0.58125 0.3 0  0.541969 0.272936 0  0.559375 0.3 0  0.556796 0.282529 0  0.543473 0.287206 0  0.581429 0.267774 0  0.566728 0.271171 0  0.570869 0.255585 0  0.577404 0.283865 0  0.603125 0.3 0  0.597531 0.28035 0  0.570312 0.338778 0  0.592188 0.292492 0  0.603513 0.256094 0  0.614063 0.286265 0  0.610329 0.27064 0  0.632708 0.251285 0  0.657223 0.261594 0  0.618789 0.257807 0  0.614188 0.22987 0  0.630935 0.265614 
[...]
<PointData  Vectors="v"> 
	<DataArray  type="Float64"  Name="v"  NumberOfComponents="3" format="ascii">
0.0 0.0 0.0 0.0 0.0 0.0 0.0 0.0 0.0 0.0 0.0 0.0 0.7962705117571199 -0.19601559214152733 0.0 0.8403511649985306 0.207698944872631 0.0 1.1699384394807901 -0.05905613497447795 0.0 1.137967075964398 0.05577717525753133 0.0 0.0 0.0 0.0 0.0 0.0 0.0 0.0 0.0 0.0 0.0 0.0 0.0 0.0008705327239342188 0.000803823606082357 0.0 6.377070286937638e-05 -2.7952060484764003e-05 0.0 0.00040975163935543467 0.0007208514766680184 0.0 0.0 0.0 0.0 0.0 0.0 0.0 0.0 0.0 0.0 0.0 0.0 0.0 0.0 0.0 0.0 0.0 0.0 0.0 0.0 0.0 0.0 0.0 0.0 0.0 0.0 0.0 0.0 0.0 0.0 0.0 0.0 0.0 0.0 0.0 0.0 0.0 0.0 0.0 0.0 0.0 0.0 0.0 0.0 0.0 0.0 0.0 0.0 0.0 0.0 0.0 0.0 0.0 0.0 0.0 0.000557185583662216 -0.0009672428322201215 0.0 0.0005716843899963545 -0.000852134825496587 0.0 0.0008677139650393108 -0.0008089547749745145 0.0 0.0 0.0 0.0 0.0 0.0 0.0 0.0 0.0 0.0 0.0 0.0 0.0 0.0 0.0 0.0 0.76134190381385 -0.0014324807124524886 0.0 1.2774208160935399 0.08457421291826812 0.0 1.2674200058181213 -0.07778750505046163 0.0 0.0 0.0 0.0 1.353760513317723 -0.13362384092583293 0.0 1.3577926399083897 0.15397868487181038 0.0 0.0 0.0 0.0 0.0 0.0 0.0 1.0 0.0 0.0 0.0 0.0 0.0 0.0 0.0 0.0 0.0 0.0 0.0 0.8426473870729813 -0.23199333254452734 0.0 1.1515829135506273 -0.34438164031895363 0.0 0.8637588884848989 0.22917821737905933 0.0 1.166043344461319 0.3537109055246535 0.0 0.42824505365942545 -0.004192775589386129 0.0 0.16587124138955012 0.06120402668741645 0.0 0.1702274285694418 -0.06079319316652961 0.0 -0.029113662506237044 -0.03933129379912765 0.0 -0.027072751227916757 0.036224362219932596 0.0 0.334431274314305 -0.2800988927185382 0.0 0.8580639154086674 -0.6736443456286477 0.0 0.6401365596150987 -0.6883839627891806 0.0 1.2064033969433003 -0.6134340721203183 0.0 0.41547187607328095 -0.06874804469562665 0.0 0.33041584405540525 0.26850412045695854 0.0 0.6427586557412645 0.6691226966153739 0.0 1.1851464440939417 0.6151611606747296 0.0 0.4090655188977827 0.07078033631502008 0.0 1.3125728101875755 0.25976357420540785 0.0 0.3371096567911099 0.2612931820291257 0.0 1.302730550415148 -0.24089691644981115 0.0 0.33022360036106363 -0.25068525171708156 0.0 -0.034742807715892714 -0.017975052012773794 0.0 1.1251735089612116 -0.39885628380902755 0.0 1.0934522863943268 -0.7245224954081083 0.0 0.8519862585161323 0.770581632027297 0.0 1.1317714256412281 0.39945562200809864 0.0 0.7602330365446622 0.1859450003598267 0.0 0.11143541520263517 0.05292500106292187 0.0 0.7695170221427527 -0.18190810030670437 0.0 0.11416337073403524 -0.05210751472151495 0.0 -0.0306579918528763 0.019149365303760588 0.0 1.0274997845419358 0.7187625018921996 0.0 0.44230848129683575 0.5289697637817838 0.0 0.4588860012133409 0.17751582750429448 0.0 0.28261703757438034 0.06946210129462571 0.0 0.46409585296380185 -0.1733110110545027 0.0 0.2892023721504174 -0.06636806154557483 0.0 -0.07590427322471868 0.00152199013686357 0.0 0.9653402815370541 0.3172655188205257 0.0 1.2602127302591124 0.3125600834730547 0.0 1.2458215728964972 0.2879546871743855 0.0 1.2349758859215094 -0.30781227661805227 0.0 1.2477536361902906 -0.2810670002879188 0.0 1.2208228792750933 0.3304901210720751 0.0 1.2263455449828948 -0.32268264156603804 0.0 0.4430024249214543 -0.5448281342621917 0.0 0.8020554046860993 -0.13976723655316778 0.0 0.671609534444648 -0.41991580482759844 0.0 0.8773062431288516 0.5936691893102095 0.0 0.7992938892746309 0.14265913171546613 0.0 0.6764414922793917 0.41993304173516954 0.0 1.2919674979550768 -0.004138207672188376 0.0 0.29882893070733174 0.14738303301477743 0.0 0.3001463364315659 -0.13951623197026722 0.0 -0.055463541278201293 -0.012862801529146308 0.0 1.2650853810225156 0.47142588164668126 0.0 0.7702628298287645 0.11978455345801786 0.0 1.2613735653960654 -0.47335697423735273 0.0 0.7882961778923743 -0.11518051731954976 0.0 1.2758121021156656 0.41760692027144375 0.0 1.253926512665539 0.4006421246383745 0.0 1.2718587633653353 -0.4143178086288274 0.0 1.2449090490944843 -0.38117912007744037 0.0 0.5835732845904602 -0.16074112766007423 0.0 0.7965134330827085 -0.33196004936539386 0.0 1.0103745369337052 0.6036240028661627 0.0 0.5917397354685168 0.1503955658780788 0.0 0.812521838568067 0.33153885663634286 0.0 0.7478444078135574 0.08051323264057549 0.0 0.7825257150236503 -0.07383990852047295 0.0 0.055021910851051306 -0.020489138514333104 0.0 1.3625370225135038 0.20578872290736291 0.0 0.9299413630274002 -0.3222574086228239 0.0 1.3446259139782304 -0.19066876460348983 0.0 0.4142119700370013 0.09166111162254297 0.0 0.43094034859627867 -0.08061982393500902 0.0 -0.0529765111693664 -0.007265531110772877 0.0 1.0571989755969327 0.3537436216338619 0.0 0.943087265978635 0.3913153533351087 0.0 0.9241566567381111 0.11167464643717177 0.0 0.823011219232535 -0.08688842908137955 0.0 1.306870882405746 0.016566369200395843 0.0 1.0276707848592601 -0.34521447721337056 0.0 1.0746893196736962 -0.5704306319938933 0.0 0.9302491517472048 -0.3894911483762589 0.0 0.9976171336251283 -0.43873737039735544 0.0 0.9330775995469567 -0.5429660784689884 0.0 0.8656327111581752 -0.4066274043198481 0.0 1.2735680530574889 0.23149183417032088 0.0 1.2713368106539844 -0.21994224752492195 0.0 0.8527064625814798 -0.23569579285164283 0.0 0.8791300570715874 -0.31003767370208596 0.0 0.8529660053502929 -0.2991494086418287 0.0 0.8514826155911508 -0.25644266897025547 0.0 0.8542712964099248 -0.25283333718743145 0.0 0.896366740244237 -0.31953305541455984 0.0 1.328908351957677 0.31461023590929804 0.0 1.0824913968634948 -0.00039295564425438894 0.0 1.3145063511769368 0.3616674265403802 0.0 1.321469552099351 -0.29622900443242045 0.0 0.0 0.0 0.0 0.0 0.0 0.0 1.2996381167540014 -0.34957313919059796 0.0 0.714303659361557 -0.2674928611097122 0.0 0.8204380734510404 -0.21088239387602478 0.0 0.8711956831059116 -0.11082931775316332 0.0 0.862472466855431 -0.16384658939058094 0.0 0.9375 0.0 0.0 0.7500000000000001 0.0 0.0 0.7224506146275753 0.2651299157911059 0.0 0.8240200330553912 0.2000147470060512 0.0 0.7499999999999999 0.0 0.0 0.8697081814823614 0.12771697149069294 0.0 0.9287115352639673 0.04278652843468897 0.0 0.848118942093261 0.04496105142735068 0.0 -0.03428305584352197 -0.010385814803078562 0.0 0.09565561168007988 -0.01568827644117085 0.0 1.1149665559957394 0.55457219787802 0.0 1.0189365716213388 0.47297535319685785 0.0 0.8809371372343799 0.24537785809452173 0.0 1.2009118774073932 0.13830331193772605 0.0 1.3290315224261906 0.061101650605643903 0.0 0.3589936868249863 0.036817066770223755 0.0 1.3561213403520656 0.103586782907998 0.0 0.7162523870147515 0.053677140200988384 0.0 1.172274295539536 0.100268014610644 0.0 0.5167023718492532 0.015758791654491868 0.0 0.4996144398167344 0.029339127312734605 0.0 0.07371770210986713 0.011237811619380133 0.0 0.9565195370235345 0.03517057007932432 0.0 0.2614735478498819 0.020742913865437498 0.0 0.16662391342417832 0.008377353864592435 0.0 0.2713293990369327 0.013951180527210123 0.0 0.6659192914590687 -0.0033213408765660653 0.0 0.49963565713104074 0.007536516932725452 0.0 1.3154390241138063 0.021745546015459836 0.0 0.5437148215070475 0.06095435831670374 0.0 1.2295697084484383 -0.1428230820624582 0.0 0.20927544159966438 -0.036898532825280564 0.0 1.20564743238363 0.17218116419426088 0.0 0.8828090938791154 0.17965872534925456 0.0 0.7011399768491391 -0.16794311258969882 0.0 1.115792520207543 -0.0946521220672247 0.0 1.0385755068255433 -0.22389019045295386 0.0 0.8637838247411097 -0.18270829485663784 0.0 0.8754332634290556 -0.025681674255779167 0.0 0.44458117485080245 -0.04916960197217791 0.0 0.29670365397290416 -0.03254736168632004 0.0 1.328589141752342 -0.042365246215571604 0.0 0.2126259428984063 -0.013037028174007854 0.0 1.3553894463933134 -0.0869342701770756 0.0 0.1962478082479342 -0.01796927972693225 0.0 0.5381696811593194 -0.015900359099724422 0.0 0.0016783425132158064 -0.010444612125330188 0.0 0.5746789543943535 -0.03209799470573039 0.0 0.8788545777170841 0.2970320374076156 0.0 0.8795093815045327 0.4106169666349714 0.0 0.8849989506273936 0.27026209082841046 0.0 0.9122149721816645 0.10978612273135752 0.0 0.8651371034480686 0.22321741992481264 0.0 0.9046665184477465 0.3036105467781078 0.0 0.8571723627471517 0.23345467080486176 0.0 0.8019560920981399 0.18334134753465364 0.0 0.8670369239288847 0.1614723204284884 0.0 0.0 0.0 0.0 0.8414881250893512 0.17663682944572054 0.0 0.8706436787604497 0.1709245373563448 0.0 1.2123973208317183 0.05028625451933159 0.0 1.2377275961490686 0.06593947898357093 0.0 0.8893527360505932 0.014265374420676189 0.0 0.5930168351179467 -0.023444917470516663 0.0 1.2794336516224982 0.1456640162619297 0.0 0.7176555488280503 -0.17372438205307347 0.0 1.178052966557193 -0.1649686579635835 0.0 0.9981097907791189 -0.020030462747491054 0.0 1.3231189122031721 -0.008005463799039188 0.0 0.5872103394286027 -0.0006094744257420725 0.0 1.2196808106860333 -0.012798910575926966 0.0 0.9831370858933297 0.008468065682363671 0.0 -0.0010556782987602386 -0.007443427526602305 0.0 -0.09339659384405181 0.00038074917591641495 0.0 0.9447635073242854 0.341094808583654 0.0 0.8754833625298655 -0.016251876301039848 0.0 0.42823592576755243 -0.006381382448431904 0.0 0.0 0.0 0.0 1.328810228849765 0.03951004276078745 0.0 1.21197137601951 0.026800759892763946 0.0 1.3165338481301325 0.1143462640929764 0.0 1.2541911515659268 -0.04380314906384991 0.0 0.4169136348923456 -0.0137731673707064 0.0 1.2278196675727842 0.009704354164201697 0.0 1.2925695951129867 0.055102445982307596 0.0 0.04469616592244758 -0.009755244179657797 0.0 -0.08013401314793663 -0.005100262338754224 0.0 -0.0644167081372299 -0.007465263808916294 0.0 -0.07980857992549206 0.0016451072915607183 0.0 1.1854883077120733 0.21894212926810244 0.0 0.777300902315549 0.1984535849100483 0.0 0.7778791980586187 0.15419206318418657 0.0 0.7857269176063694 0.10687562199383457 0.0 0.620491143363675 0.11100654437976441 0.0 0.3548848750832154 0.0023512517438044203 0.0 0.09599048179089913 0.004583068849799629 0.0 0.36455121677514996 -0.01851570826870802 0.0 1.0709255307968726 0.07617848794008779 0.0 0.0 0.0 0.0 0.521771564940487 0.010325426702652855 0.0 0.9320200441455182 0.02777427139847063 0.0 -0.10604763383436612 0.00037141148730306946 0.0 1.0965884905831083 0.2666831815845535 0.0 0.9003276034319156 0.11234660942488571 0.0 1.2800622173204594 -0.04854390745792021 0.0 0.1901256068762108 -0.004266151758780858 0.0 0.3608259617200651 0.01638388500611017 0.0 0.14604544734903482 -0.0007990584653829484 0.0 1.303845628622902 0.03755490426478796 0.0 -0.10285904510012059 -0.001987803181173443 0.0 -0.07406671325697714 -0.006768064130941705 0.0 -0.09442721635038435 -0.004875946793540583 0.0 -0.04022472044816547 0.006416218355322334 0.0 -0.09306295290111981 0.001418821186240088 0.0 -0.11279209225074409 2.188204628436708e-05 0.0 -0.06423632430929983 -0.0024818391333528327 0.0 -0.038671967397212854 0.003906662486255467 0.0 -0.11688841676065623 -0.002135250873320549 0.0 0.07678478214757337 -0.000763931201442511 0.0 -0.035674962284384465 0.005648564677014741 0.0 -0.12128442868561898 -0.00086141792689046 0.0 -0.11949589736806272 -0.0005296922512633833 0.0 -0.022523800139372427 -0.0015511871255360537 0.0 0.0 0.0 0.0 0.9460734389907108 0.2553586562554205 0.0 0.9513518566473652 0.04008083325346125 0.0 0.22627205043427753 -0.0028621736035831756 0.0 0.3119395169530404 -0.004841611574744304 0.0 0.5458853173973197 0.019410197952445873 0.0 0.9126475109964043 0.04131001905144364 0.0 1.1922999666718392 0.03286232017393245 0.0 1.3543329765799228 0.01716936861231119 0.0 0.09062420020989533 0.001290307199180623 0.0 -0.03408102925610058 0.0009010777892769725 0.0 0.02275771986783875 -0.011062661251244272 0.0 0.13597786965570918 -0.007297927020007286 0.0 0.12552774351639368 -0.012711727172641721 0.0 0.31485123059359876 -0.021615943794767244 0.0 0.5736880670897027 -0.05018247415531467 0.0 0.8573815020134109 -0.050388745886742935 0.0 0.36568469109086904 -0.03054809311861851 0.0 0.5537735905334494 -0.033758958517962276 0.0 0.6486967982946321 -0.04620766283896787 0.0 0.7680317658907979 -0.03857873057969885 0.0 0.2583102548020422 -0.027517623827044962 0.0 1.2733997831266095 -0.0626677423674945 0.0 1.0565390340548455 -0.04997370710713188 0.0 1.285602760718528 -0.026863004860358284 0.0 1.0464682673658543 -0.03720333077331288 0.0 -0.0425862043173126 -0.008446803549134746 0.0 1.0256970892096147 -0.06617144452648292 0.0 1.0574115908418666 -0.02770307897229657 0.0 1.2277558171711234 -0.10313921883874172 0.0 -0.1081106020377768 -0.0019929573746691183 0.0 0.4591023956195558 -0.04523253213549703 0.0 1.252225352953756 -0.10586882196580094 0.0 0.13111216239417992 -0.021332360672772374 0.0 -0.12085380047786953 -0.0006190946564432095 0.0 1.2628482349453736 -0.08816030499046984 0.0 0.06298239192448123 -0.020986088398787867 0.0 -0.11071235810813923 -0.002249233100699874 0.0 -0.0250977074083387 0.010040639030552162 0.0 0.04546040373724274 -0.017457955186926662 0.0 -0.06738565732997337 -0.007838312382407448 0.0 0.41768075867491955 -0.04902176160718557 0.0 -0.04743372568677179 -0.010673041205917774 0.0 0.11385283972868178 0.03036873578919093 0.0 -0.08138880641432013 0.00582655317387244 0.0 -0.07242439744025034 -0.006293092396857677 0.0 -0.09880192957718024 0.0007510369407757393 0.0 0.04056100954659165 0.01726161117743014 0.0 1.2175558126781287 0.10284297145059579 0.0 0.328670990055282 0.03733032577879122 0.0 0.30402082920950285 -0.0449086103930282 0.0 0.2564069474451838 -0.0083302204864213 0.0 0.7064163441893648 -0.01830336448644763 0.0 0.3088769795896177 0.0044772555189152114 0.0 1.177263731240226 0.05169009193187504 0.0 0.889572145561248 0.05980877766873072 0.0 0.9285924024719904 -0.08330814786061358 0.0 -0.04477549941955758 -0.004709458114527316 0.0 -0.05792506012873946 -0.003024501418612488 0.0 -0.1177404708289188 -0.0011936334585739632 0.0 -0.044034942071516286 0.003877596897315873 0.0 -0.07883195548772053 -0.0037273902085468488 0.0 0.32496247340745443 -0.03832778817702318 0.0 1.2596110623779633 -0.09394339313192125 0.0 0.6249302547991764 -0.06166205208491711 0.0 0.8932299033723227 -0.08651725299570474 0.0 -0.02786381411024496 0.012923255551462145 0.0 0.06066060968170713 -0.02295113102977262 0.0 -0.007388956686708347 -0.014942871206795338 0.0 0.20796172643100166 -0.038723328470460304 0.0 -0.016360722181654516 -0.014590967342904089 0.0 1.2552102883665561 0.10648042260051926 0.0 -0.06622928072411058 -0.0010190121575945578 0.0 -0.013758326342418524 0.010968976884647805 0.0 -0.05077186355036996 0.00020627809783452564 0.0 0.054524780133457046 -0.021489549886823285 0.0 0.3386189780468511 0.023474883505026294 0.0 0.6871451112005178 -0.07042063729138018 0.0 0.5065969173647625 -0.06006381257121098 0.0 0.785515573518204 -0.06816813423212073 0.0 0.26396368826425376 -0.03842075204246314 0.0 0.8189395033523916 -0.08804995450002509 0.0 1.1669600951188066 -0.09189463298808605 0.0 1.0670859897491294 -0.08413952548150806 0.0 1.0400928129209068 -0.07470423218095548 0.0 0.5915100400388923 -0.06979172864942353 0.0 0.5031069171125249 -0.06470583610038523 0.0 0.39039141323756804 -0.057350851413235836 0.0 0.3657417813373469 -0.05414098810813357 0.0 0.14393213701137064 -0.03303795355669794 0.0 0.7867075788494321 -0.08844411961330738 0.0 0.26149953264205145 0.013468697015606932 0.0 0.6077329638934434 0.036256492392812006 0.0 0.06891716557916766 0.005243521093439706 0.0 0.17289674093765414 0.01716935709052489 0.0 -0.06831463844852366 -1.9304650356090264e-05 0.0 1.3332232306845642 -0.02471999304726916 0.0 1.2193343668296672 0.041139402149940836 0.0 1.3562517019396567 -0.009743762175779953 0.0 1.3290163369473729 -0.06388410906985566 0.0 0.16875440445862883 -0.03581672963986248 0.0 0.3566253566031716 -0.05438922108033346 0.0 0.5595442441211164 0.04599136950434524 0.0 0.08840001309353197 0.01528771184510632 0.0 1.3091439457563383 0.0035886886746879978 0.0 1.3497239721557848 -0.030732323914883338 0.0 0.5193333685403347 0.06885489918636395 0.0 1.3294238526719302 -0.07614103179509894 0.0 0.5894629811865377 0.04211239445768541 0.0 1.2845545242142842 0.07172583679872058 0.0 0.33372853880882314 0.03314347885650906 0.0 0.7049893898168225 0.06364101518756754 0.0 1.3357342555309588 0.023704734417083668 0.0 1.232325168527054 -0.022656764634117598 0.0 1.320218553680549 -0.08766692855583454 0.0 0.8255718885498105 0.06051542239011694 0.0 1.048649975609658 0.07900755043160528 0.0 1.1080799359302118 0.07174973921080405 0.0 1.2686301567771616 0.09966380720619025 0.0 1.1303215919877474 0.09847548238188189 0.0 0.9761872663954155 0.08131704732835479 0.0 0.6698002278221953 0.06762193245545034 0.0 1.2749562071070628 -0.08995388609373033 0.0 0.0 0.0 0.0 1.3098978821446663 0.05830236421648867 0.0 0.9185141357572971 0.09022895191413524 0.0 0.3263967094090052 0.04211776689745686 0.0 1.31810612235539 0.06960556001976274 0.0 0.900762369915128 0.08606227561811834 0.0 1.27286399292328 0.09040320844063877 0.0 0.5993775911782934 0.06664265990163304 0.0 1.2636796384241848 0.10499660514059543 0.0 0.5506895465443891 0.06852722204203554 0.0 0.25709045402554226 0.04042048542420926 0.0 1.148426063485957 0.10238227999291798 0.0 0.6628674059298039 0.07524338538026178 0.0 1.0743417086630866 0.10398039476804762 0.0 0.8463270543835895 0.09108592267483356 0.0 0.777428057225472 0.08914898233433267 0.0 1.1975771758781528 0.08921781415876612 0.0 1.1173872352024548 0.09254634155358107 0.0 1.3082968816716236 0.08319326085481102 0.0 0.15686336111968707 0.028930854618217115 0.0 1.1530650967484295 0.07963260803827013 0.0 1.2182113406882693 0.10730955419278418 0.0 1.159150086723091 0.10807083076649916 0.0 1.2349518728223174 0.10755871716496063 0.0 1.2452281255873572 0.1084384653167668 0.0 1.2933716034797036 0.08867463688734635 0.0 1.1847301707513962 0.06882695178523036 0.0 0.9467652374007265 0.10181592497722992 0.0 1.230248930463831 0.09311719132908809 0.0 1.2804708855931968 0.09062843521842323 0.0 1.0460404017243434 0.06564322371563124 0.0 1.1639974648088698 0.10994357868066691 0.0 1.080864172418865 0.10867025728368285 0.0 1.061553981907062 0.10653330985238847 0.0 1.2334201241463216 0.09702937226119221 0.0 0.0 0.0 0.0 0.6445221008979755 -0.0057710918516354235 0.0 1.0777336217725502 0.43400722277459997 0.0 1.1668083216618614 0.4219274081835702 0.0 1.0824346952425503 -0.4268351324474008 0.0 0.8656883499902456 -0.22700761263952493 0.0 0.9789885483046421 -0.2555399310241857 0.0 0.8923826210186288 -0.08502258503715067 0.0 1.2222585607873788 -0.0524922361309554 0.0 1.0808165546919106 -0.06435139710098482 0.0 1.198165731309755 -0.10505776762591985 0.0 1.2656011778880847 -0.0851782754380722 0.0 1.3157337906820048 -0.05424627753229596 0.0 -0.08278455388356079 -0.002858104033259715 0.0 -0.047708068027268194 0.005985765941740524 0.0 0.0042264879902732064 0.008790934068013343 0.0 0.003095947262756003 0.009248406097309265 0.0 0.15192977795527093 0.024210520612084417 0.0 -0.05677914124127763 0.006182698083152408 0.0 0.06450203324538088 0.019013402452350874 0.0 0.22451436839792804 0.035108723459097976 0.0 0.08859532107051006 0.03709466797653021 0.0 -0.036589953877894196 0.01316459326487744 0.0 1.034863646509646 0.15965676571771237 0.0 -0.06871791673188805 0.004616988905947963 0.0 1.2563506718809534 -0.10119377729337752 0.0 1.1429941620785076 -0.09914694793028209 0.0 0.9514658734806775 -0.09301791597630828 0.0 1.1050453657741577 -0.10257734556938598 0.0 1.2408477682186176 -0.10692575233566053 0.0 0.9142084506746098 -0.095777908514772 0.0 1.2481768531573245 -0.10696168278542396 0.0 1.0792128295824104 -0.10510925324264436 0.0 1.1340682228940966 -0.10557558844913087 0.0 0.8654566219233427 -0.0946556467429654 0.0 0.9088808728997797 -0.09734074699341366 0.0 0.6277753160330898 -0.0776297603793681 0.0 1.1059564331428964 -0.10762518486917573 0.0 1.2347640230212118 -0.10584815021574741 0.0 1.0706845643265317 -0.10493064204704876 0.0 1.1689880119349096 -0.08618417006123738 0.0 1.1947889789550195 -0.10815419140624648 0.0 0.6839267463525993 -0.08136092388457411 0.0 1.1426725833058482 -0.10562188240550631 0.0 0.9411293884107