<?xml version="1.0"?>
<VTKFile type="UnstructuredGrid"  version="0.1"  >
<UnstructuredGrid>
<Piece  NumberOfPoints="1289" NumberOfCells="2413">
<Points>
<DataArray  type="Float64"  NumberOfComponents="3"  format="ascii">0 0 0  0 0.41 0  2.2 0.41 0  2.2 0 0  0.1 0.1 0  0.1 0.3 0  0.8 0.3 0  0.8 0.1 0  0.25 0.2 0  0.248976 0.210065 0  0.245948 0.219718 0  0.241038 0.228563 0  0.234448 0.23624 0  0.226448 0.242432 0  0.217365 0.246888 0  0.207571 0.249423 0  0.197468 0.249936 0  0.187467 0.248404 0  0.17798 0.24489 0  0.169395 0.239539 0  0.162062 0.232569 0  0.156283 0.224265 0  0.152293 0.214968 0  0.150257 0.205058 0  0.150257 0.194942 0  0.152293 0.185032 0  0.156283 0.175735 0  0.162062 0.167431 0  0.169395 0.160461 0  0.17798 0.15511 0  0.187467 0.151596 0  0.197468 0.150064 0  0.207571 0.150577 0  0.217365 0.153112 0  0.226448 0.157568 0  0.234448 0.16376 0  0.241038 0.171437 0  0.245948 0.180282 0  0.248976 0.189935 0  1.1 0 0  1.1 0.41 0  0.1 0.2 0  0.45 0.1 0  0.45 0.3 0  0.55 0 0  0.275 0.1 0  0.275 0.3 0  0.275 0 0  0.55 0.41 0  0 0.205 0  0.825 0 0  0.825 0.41 0  0.275 0.41 0  0.1 0.15 0  0.1875 0.1 0  0.1 0.25 0  0.1875 0.3 0  0.132322 0.2 0  0.241426 0.253518 0  0.241426 0.146482 0  0.264574 0.17974 0  0.264574 0.22026 0  0.138434 0.187348 0  0.153372 0.150948 0  0.148413 0.164094 0  0.176495 0.136535 0  0.22768 0.143571 0  0.138434 0.212652 0  0.148413 0.235906 0  0.176495 0.263465 0  0.22768 0.256429 0  0.23125 0.3 0  0.24769 0.24094 0  0.23125 0.1 0  0.24769 0.15906 0  0.26253 0.193641 0  0.190482 0.137872 0  0.166753 0.146661 0  0.157737 0.244461 0  0.190482 0.262128 0  0.203107 0.261264 0  0.253635 0.22977 0  0.203107 0.138736 0  0.253635 0.17023 0  0.261028 0.206206 0  0.167707 0.251809 0  0.143629 0.224191 0  0.215302 0.2591 0  0.270465 0.245894 0  0.215302 0.1409 0  0.270465 0.154106 0  0.284052 0.202587 0  0.14375 0.3 0  0.209375 0.3 0  0.225966 0.278501 0  0.209375 0.1 0  0.225966 0.121499 0  0.211613 0.273759 0  0.211613 0.126241 0  0.143629 0.175809 0  0.1 0.175 0  0.133484 0.164832 0  0.144491 0.249539 0  0.1 0.225 0  0.133484 0.235168 0  0.3625 0.3 0  0.25691 0.253381 0  0.25691 0.146619 0  0.277205 0.188698 0  0.184724 0.275712 0  0.237372 0.268285 0  0.184724 0.124288 0  0.237372 0.131715 0  0.197578 0.273149 0  0.193656 0.286994 0  0.197578 0.126851 0  0.193656 0.113006 0  0.122953 0.187671 0  0.118362 0.153758 0  0.155372 0.258107 0  0.122953 0.212329 0  0.118362 0.246242 0  0.276394 0.27264 0  0.276394 0.12736 0  0.280965 0.170013 0  0.253125 0.3 0  0.14375 0.1 0  0.253125 0.1 0  0.269489 0.26014 0  0.269489 0.13986 0  0.303639 0.184297 0  0.165625 0.3 0  0.134742 0.273113 0  0.257831 0.274737 0  0.255279 0.128499 0  0.3625 0.1 0  0.165625 0.1 0  0.162031 0.132368 0  0.134955 0.126405 0  0.149334 0.125568 0  0.142936 0.139597 0  0.12695 0.140259 0  0.242514 0.285501 0  0.242514 0.114499 0  0.1 0.125 0  0.117483 0.12555 0  0.11154 0.139776 0  0.121875 0.1 0  0.109143 0.1125 0  0.126805 0.114 0  0.220313 0.29129 0  0.351562 0.287369 0  0.207222 0.2866 0  0.220312 0.10871 0  0.1375 0 0  0.20625 0 0  0.207222 0.1134 0  0.11722 0.17118 0  0.1 0.1625 0  0.0778409 0.16875 0  0.0862762 0.15625 0  0 0.15375 0  0 0.1025 0  0.11722 0.22882 0  0.1 0.2375 0  0 0.3075 0  0.0862762 0.23125 0  0.0598995 0.222547 0  0.0860223 0.2125 0  0.289584 0.181469 0  0.300267 0.16446 0  0.163832 0.269071 0  0.149597 0.273325 0  0.1 0.275 0  0.268498 0.285953 0  0.31875 0.3 0  0.294154 0.254672 0  0.296875 0.3 0  0.293558 0.271845 0  0.285095 0.286799 0  0.324298 0.264316 0  0.307866 0.263745 0  0.317093 0.234901 0  0.315485 0.281219 0  0.316547 0.250625 0  0.344693 0.243731 0  0.331592 0.251147 0  0.35129 0.270663 0  0.338689 0.263683 0  0.340625 0.3 0  0.249849 0.264383 0  0.265097 0.11422 0  0.284688 0.156136 0  0.242188 0.324017 0  0.0856613 0.2625 0  0.132812 0.0612217 0  0.264062 0.0612217 0  0.198437 0.07598340000000001 0  0.0860223 0.1375 0  0.0794526 0.191089 0  0.285228 0.140397 0  0.298655 0.148737 0  0.31875 0.1 0  0.327335 0.15374 0  0.296875 0.1 0  0.312289 0.155283 0  0.313348 0.135607 0  0.321802 0.173916 0  0.298433 0.134116 0  0.112124 0.2625 0  0.127526 0.259083 0  0.121875 0.3 0  0.0682687 0.241503 0  0.1 0.2875 0  0.117762 0.28125 0  0.107813 0.3 0  0.103906 0.313849 0  0.0778409 0.28125 0  0.1375 0.41 0  0.0862762 0.29375 0  0.08886860000000001 0.24375 0  0.307812 0.338778 0  0.307812 0.292227 0  0.33216 0.279164 0  0.387888 0.266414 0  0.264063 0.31948 0  0.110937 0.07598340000000001 0  0.242188 0.07598340000000001 0  0.319914 0.11839 0  0.340625 0.1 0  0.334448 0.133793 0  0.329687 0.108539 0  0.346259 0.118491 0  0.360334 0.173636 0  0.327539 0.205033 0  0.132812 0.288712 0  0.362436 0.278836 0  0.368105 0.259418 0  0.4125 0.41 0  0.329687 0.324017 0  0.329687 0.292306 0  0.285938 0.318952 0  0.417187 0.338778 0  0.324481 0.14148 0  0.351562 0.106771 0  0.40625 0.1 0  0.341028 0.168342 0  0.319221 0.190479 0  0.335292 0.184501 0  0.305563 0.20794 0  0.220313 0.31948 0  0.132812 0.332772 0  0.0865876 0.311259 0  0.0598995 0.302453 0  0.0906541 0.343255 0  0.353543 0.255837 0  0.36574 0.237633 0  0.405007 0.254279 0  0.275795 0.352123 0  0.4125 0 0  0.35493 0.137394 0  0.366563 0.120618 0  0.35917 0.205246 0  0.198438 0.318952 0  0.0626109 0.263892 0  0.40625 0.3 0  0.354809 0.155936 0  0.386512 0.146872 0  0.373101 0.159939 0  0.384375 0.1 0  0.343394 0.19929 0  0.350682 0.185683 0  0.368101 0.189748 0  0.344016 0.221511 0  0.391108 0.213329 0  0.376279 0.204783 0  0.398843 0.182768 0  0.375804 0.222746 0  0.390665 0.196958 0  0.394004 0.23518 0  0.359883 0.222828 0  0.419908 0.204359 0  0.404243 0.204783 0  0.412615 0.224526 0  0.20625 0.41 0  0.165625 0.325257 0  0.0347982 0.244954 0  0.379558 0.247154 0  0.34165 0.147603 0  0.372264 0.136992 0  0.388988 0.121989 0  0.373437 0.108554 0  0.351562 0.31948 0  0.391367 0.16527 0  0.399572 0.223324 0  0.452011 0.227371 0  0.40877 0.239392 0  0.431491 0.237337 0  0.421224 0.250459 0  0.449619 0.262098 0  0.418865 0.276779 0  0.437063 0.252274 0  0.415673 0.263227 0  0.430988 0.266772 0  0.402767 0.273419 0  0.452967 0.244883 0  0.428125 0.3 0  0.408502 0.286186 0  0.384375 0.3 0  0.392267 0.285807 0  0.465927 0.219339 0  0.43489 0.283846 0  0.376424 0.286289 0  0.625 0.3 0  0.473533 0.205186 0  0.461713 0.255517 0  0.5375 0.3 0  0.465725 0.235405 0  0.44631 0.201425 0  0.471875 0.3 0  0.494307 0.227729 0  0.459448 0.206736 0  0.462294 0.180792 0  0.478933 0.227536 0  0.486793 0.21381 0  0.486322 0.251373 0  0.50065 0.215318 0  0.54005 0.175389 0  0.474633 0.189893 0  0.512916 0.208697 0  0.49531 0.199967 0  0.475889 0.175275 0  0.625 0.1 0  0.459311 0.153933 0  0.513645 0.242704 0  0.392892 0.248539 0  0.374815 0.271913 0  0.365974 0.14871 0  0.395312 0.109184 0  0.417061 0.123981 0  0.483196 0.277003 0  0.381967 0.179632 0  0.429898 0.219374 0  0.433473 0.206165 0  0.43149 0.181038 0  0.444208 0.215487 0  0.472985 0.247309 0  0.49375 0.3 0  0.475579 0.262714 0  0.49916 0.274293 0  0.501175 0.184809 0  0.514164 0.225681 0  0.543648 0.214977 0  0.5341630000000001 0.23481 0  0.527396 0.216171 0  0.5375 0.1 0  0.534548 0.202315 0  0.561545 0.192513 0  0.5494289999999999 0.201221 0  0.570923 0.218346 0  0.412582 0.149833 0  0.489327 0.264745 0  0.502439 0.254775 0  0.462391 0.271166 0  0.496775 0.241732 0  0.5294410000000001 0.268606 0  0.482812 0.291099 0  0.46879 0.285038 0  0.452663 0.284065 0  0.51789 0.257882 0  0.53408 0.252026 0  0.560142 0.243543 0  0.545708 0.243474 0  0.547532 0.229019 0  0.55282 0.265323 0  0.398971 0.153424 0  0.400349 0.135684 0  0.410135 0.168145 0  0.428823 0.161323 0  0.415266 0.183779 0  0.329687 0.0810483 0  0.395312 0.0612217 0  0.373437 0.318952 0  0.439062 0.324017 0  0.561816 0.229354 0  0.585029 0.239287 0  0.431827 0.139854 0  0.446796 0.168929 0  0.351562 0.07598340000000001 0  0.395313 0.318944 0  0.54337 0.150762 0  0.460937 0.31948 0  0.418412 0.137529 0  0.428125 0.1 0  0.442783 0.152332 0  0.450742 0.134294 0  0.373437 0.0805201 0  0.384383 0.342558 0  0.482812 0.318952 0  0.429239 0.127457 0  0.444274 0.117405 0  0.426548 0.113815 0  0.49375 0.1 0  0.488954 0.113984 0  0.457973 0.121842 0  0.471621 0.137346 0  0.515625 0.325257 0  0.48125 0.41 0  0.417187 0.07598340000000001 0  0.496363 0.126778 0  0.479043 0.155715 0  0.439062 0.0805201 0  0.481795 0.126919 0  0.471875 0.1 0  0.489227 0.142159 0  0.515625 0.1 0  0.520062 0.147117 0  0.501244 0.161791 0  0.505431 0.112984 0  0.505344 0.14029 0  0.526563 0.119081 0  0.5181750000000001 0.131908 0  0.539868 0.136937 0  0.460937 0.108383 0  0.474242 0.114415 0  0.460937 0.0810483 0  0.487841 0.167168 0  0.526563 0.0612217 0  0.526563 0.106406 0  0.537619 0.112743 0  0.58125 0.1 0  0.559375 0.1 0  0.482812 0.08105569999999999 0  0.471883 0.0587655 0  0.570312 0.129396 0  0.548437 0.07598340000000001 0  0.504687 0.08105569999999999 0  0.49375 0.0470127 0  0.570312 0.112663 0  0.592798 0.12103 0  0.553986 0.12103 0  0.570312 0.0805201 0  0.48125 0 0  0.114787 0.2 0  0.160769 0.284765 0  0.175816 0.288361 0  0.162602 0.116048 0  0.154687 0.07598340000000001 0  0.176562 0.0805201 0  0.0598995 0.147547 0  0.307812 0.109924 0  0.291279 0.117157 0  0.278491 0.112989 0  0.285937 0.07598340000000001 0  0.307812 0.0805201 0  0.296928 0.196743 0  0.318141 0.218507 0  0.330208 0.227509 0  0.301397 0.225668 0  0.302706 0.241401 0  0.292574 0.21424 0  0.282762 0.230935 0  0.284351 0.244775 0  0.269553 0.23261 0  0.278572 0.217242 0  0.226924 0.342606 0  0.446928 0.185396 0  0.515625 0.3 0  0.504687 0.288879 0  0.515256 0.276534 0  0.529479 0.285328 0  0.58125 0.3 0  0.541969 0.272936 0  0.559375 0.3 0  0.556796 0.282529 0  0.543473 0.287206 0  0.581429 0.267774 0  0.566728 0.271171 0  0.570869 0.255585 0  0.577404 0.283865 0  0.603125 0.3 0  0.597531 0.28035 0  0.570312 0.338778 0  0.592188 0.292492 0  0.603513 0.256094 0  0.614063 0.286265 0  0.610329 0.27064 0  0.632708 0.251285 0  0.657223 0.261594 0  0.618789 0.257807 0  0.614188 0.22987 0  0.630935 0.265614 
[...]
<PointData  Vectors="v"> 
	<DataArray  type="Float64"  Name="v"  NumberOfComponents="3" format="ascii">
0.0 0.0 0.0 0.0 0.0 0.0 0.0 0.0 0.0 0.0 0.0 0.0 0.7962406191920676 -0.19596037622254023 0.0 0.8404038530691198 0.20774097577652445 0.0 1.1697978136061076 -0.05953706644544114 0.0 1.138111147113453 0.055799303626161104 0.0 0.0 0.0 0.0 0.0 0.0 0.0 0.0 0.0 0.0 0.0 0.0 0.0 0.0008758910079899083 0.0008106881895395042 0.0 0.000152990654894308 0.00012620633326364646 0.0 0.00043588245747699076 0.0007660923704561703 0.0 0.0 0.0 0.0 0.0 0.0 0.0 0.0 0.0 0.0 0.0 0.0 0.0 0.0 0.0 0.0 0.0 0.0 0.0 0.0 0.0 0.0 0.0 0.0 0.0 0.0 0.0 0.0 0.0 0.0 0.0 0.0 0.0 0.0 0.0 0.0 0.0 0.0 0.0 0.0 0.0 0.0 0.0 0.0 0.0 0.0 0.0 0.0 0.0 0.0 0.0 0.0 0.0 0.0 0.0 0.0005246238798358084 -0.0009110691424284179 0.0 0.0004596023194663166 -0.0006587617340713899 0.0 0.0008593891981781638 -0.000799541455066195 0.0 0.0 0.0 0.0 0.0 0.0 0.0 0.0 0.0 0.0 0.0 0.0 0.0 0.0 0.0 0.0 0.7613387079430028 -0.001304744731325174 0.0 1.2759150760448275 0.08311745130682086 0.0 1.2660001609833365 -0.07259864852605533 0.0 0.0 0.0 0.0 1.3532407543725093 -0.13308778376651248 0.0 1.3582990325167663 0.1545672429545645 0.0 0.0 0.0 0.0 0.0 0.0 0.0 1.0 0.0 0.0 0.0 0.0 0.0 0.0 0.0 0.0 0.0 0.0 0.0 0.8426154490592952 -0.23188917319394345 0.0 1.1514221842481114 -0.3442065810868272 0.0 0.8637862316177529 0.22928165527317693 0.0 1.166283115841778 0.3539471763220598 0.0 0.42824632111538863 -0.004008929906792101 0.0 0.16546872789646755 0.062064992525432856 0.0 0.170450544513075 -0.06035075275348217 0.0 -0.029114846199074295 -0.03932880858926097 0.0 -0.02717707691225689 0.03755650856786428 0.0 0.3343979766663489 -0.2798962781008774 0.0 0.8579684173078312 -0.6734892321953517 0.0 0.640052278125894 -0.6882105981784198 0.0 1.2062996317459487 -0.613297604511134 0.0 0.4157251971967666 -0.06866574597602292 0.0 0.3304481707528894 0.26870422071643013 0.0 0.6428358375801702 0.669293446093417 0.0 1.1852179168998282 0.6153287589815867 0.0 0.40880177300605786 0.07103305212344392 0.0 1.3131472316477022 0.26061283388294687 0.0 0.33869432262294896 0.26328908354110925 0.0 1.3024806605886778 -0.24032713623330773 0.0 0.32645198210935983 -0.24777580754459827 0.0 -0.03490934313327229 -0.01740863898585296 0.0 1.125217732206771 -0.3987791166078608 0.0 1.0933486530512881 -0.7243946232353202 0.0 0.8520780008209096 0.770727475752042 0.0 1.131619590087282 0.3995473719111278 0.0 0.7597766109390375 0.18599437113977355 0.0 0.11146104307711764 0.05357692653127506 0.0 0.7697790387767827 -0.18187783790901468 0.0 0.1133591028480378 -0.05178631400352 0.0 -0.03080796117919599 0.02011360134047071 0.0 1.0275688836913945 0.7188789285733591 0.0 0.4423781182022244 0.5291603796320274 0.0 0.45844465527374517 0.17777659473243732 0.0 0.2828888786971799 0.07111722321510323 0.0 0.4644179862819344 -0.173222825694901 0.0 0.2873728509902547 -0.0660927799052427 0.0 -0.07706633126786055 0.002198779045179678 0.0 0.9654796418653826 0.3173557935064179 0.0 1.260533477141324 0.3129711926509579 0.0 1.245427020782102 0.2885856615309854 0.0 1.2348041391160922 -0.307468840663541 0.0 1.24802014771785 -0.2806979710550732 0.0 1.2205136141492576 0.3308634786517053 0.0 1.2264856171519196 -0.3224364028315818 0.0 0.4429283544275816 -0.5446322113465033 0.0 0.8020330357861752 -0.1396422044407584 0.0 0.6715484170290285 -0.41972598389623833 0.0 0.8773842886434434 0.5938160292648753 0.0 0.7993114168103357 0.14278366948094764 0.0 0.6764984788940712 0.42011783464794217 0.0 1.2921559657586879 -0.007758002262866921 0.0 0.29928167252436794 0.1494497933479211 0.0 0.2992298865678189 -0.13780830826408652 0.0 -0.05625912544387761 -0.01273964548292257 0.0 1.2651466501268716 0.47168966035887294 0.0 0.7689814436335172 0.12035467127561318 0.0 1.2612653606404987 -0.47318578927631394 0.0 0.7891818902404689 -0.114934111487508 0.0 1.275774278393197 0.417924562033048 0.0 1.2540449738003598 0.40096552008590725 0.0 1.2718128750240927 -0.41409530968901487 0.0 1.2447768549279132 -0.380961004110938 0.0 0.5835473025676318 -0.16055689197517775 0.0 0.7964651047221015 -0.33181579890653706 0.0 1.010463017100851 0.6037625667072353 0.0 0.5917575030791381 0.15057879151215006 0.0 0.8125681457092578 0.3316791402170687 0.0 0.747248883724569 0.08158987367145674 0.0 0.7830786255972217 -0.07316355549357709 0.0 0.05433855839909183 -0.02100578448884806 0.0 1.3633499573366583 0.20717895390733929 0.0 0.929843368974673 -0.3221719236939756 0.0 1.3442142927325142 -0.18996709811443152 0.0 0.4142806419822254 0.09352647566747398 0.0 0.4307196901361868 -0.07960376249754812 0.0 -0.05447317578279734 -0.007112853514514305 0.0 1.057367305876336 0.3539116410350375 0.0 0.943172276199759 0.3914371763349893 0.0 0.9228007831809224 0.1126579020874783 0.0 0.8240267849164697 -0.08642433469138774 0.0 1.306298912953138 0.01557084820663043 0.0 1.0275373774763839 -0.34511190115181456 0.0 1.0745874594289753 -0.5703022990408236 0.0 0.9301757433014628 -0.38936884146463574 0.0 0.9975268769290745 -0.4386130572657483 0.0 0.9329923493231536 -0.5428254385988136 0.0 0.8655706007247256 -0.40649242322779944 0.0 1.273509249859976 0.23268810737011117 0.0 1.2714549062917964 -0.21930115658688443 0.0 0.8526722500735493 -0.2356157520539417 0.0 0.8790768551210056 -0.30993255757110916 0.0 0.8529212699317285 -0.2990367625315829 0.0 0.8514208091059108 -0.25636357292142004 0.0 0.8542273803514938 -0.2527536196062826 0.0 0.896300115642193 -0.3194325836508274 0.0 1.3292315911395338 0.3152956299335921 0.0 1.0859095256354836 -0.0037579535327322885 0.0 1.3146486275167049 0.36213076709994246 0.0 1.32128458268109 -0.2957483706478919 0.0 0.0 0.0 0.0 0.0 0.0 0.0 1.2995012792801752 -0.3492369114203735 0.0 0.7142675635698191 -0.26733374204599303 0.0 0.8204092988211165 -0.21076926552190756 0.0 0.8711809526889804 -0.110758105937507 0.0 0.8624538369102859 -0.1637671302852703 0.0 0.9375 0.0 0.0 0.7500000000000001 0.0 0.0 0.7224808771414234 0.2652844098247073 0.0 0.8240436947972384 0.20012820606516737 0.0 0.7499999999999999 0.0 0.0 0.8697217318303434 0.12780957894678346 0.0 0.9287156196615232 0.04282848132346516 0.0 0.8481185270272624 0.04505629271149073 0.0 -0.03540562064261154 -0.010477767093650153 0.0 0.09509226115340724 -0.01578443589922159 0.0 1.1150580766845752 0.5547228160206114 0.0 1.0190379175377264 0.47310392754036174 0.0 0.8809750885847423 0.24545516545282792 0.0 1.2005632116577678 0.13912124662747666 0.0 1.3291851736319633 0.058965040548816856 0.0 0.3598229796631029 0.038213446547926744 0.0 1.356478008579917 0.10233330229533727 0.0 0.7171713851400157 0.054228275635183384 0.0 1.1721997182310506 0.10018400069846985 0.0 0.5191855033990801 0.014563256279712623 0.0 0.5012684744846359 0.029605469251823596 0.0 0.07302086097034838 0.01079727008157271 0.0 0.9590226233404658 0.033856086579369275 0.0 0.26219667387575185 0.020446565070816772 0.0 0.16691540766305443 0.005737847542122704 0.0 0.2720730324279714 0.012337521381703293 0.0 0.6697197155570974 -0.00662306209712426 0.0 0.502259986086629 0.005100276550230111 0.0 1.3158152477974574 0.01833570564037514 0.0 0.5425415289780592 0.06181473841844484 0.0 1.229894354068701 -0.14213355294272678 0.0 0.20872604075484116 -0.03710473540625786 0.0 1.2056088834073992 0.1733315618803073 0.0 0.8828274500825426 0.1797289431694904 0.0 0.7011024940001472 -0.16791202071001002 0.0 1.1153942143592128 -0.09431153497231082 0.0 1.0384641159637398 -0.22365355670209497 0.0 0.8637628948234453 -0.18264218515081504 0.0 0.8754271602528237 -0.02560169276279765 0.0 0.44444756538419045 -0.048659746737015404 0.0 0.2967558798963368 -0.032527696490970086 0.0 1.328425477236437 -0.04248300304751617 0.0 0.2123866792824106 -0.012621603176002605 0.0 1.3549613104098137 -0.08668880142238712 0.0 0.19614452473826907 -0.01782312458222992 0.0 0.5383787751282832 -0.015880582235504072 0.0 0.0006128524604296882 -0.010059873444057581 0.0 0.5748862131934556 -0.03182704807131259 0.0 0.8788996165135009 0.29713751419830736 0.0 0.8795730530370528 0.4107507032532927 0.0 0.8850941688285379 0.27030416234688076 0.0 0.9122226433061876 0.10984051588637109 0.0 0.8651805030670497 0.22327672166298942 0.0 0.9047338274393782 0.30369509374697623 0.0 0.8572369437929847 0.2334988081911233 0.0 0.8020231647351972 0.1833611739272495 0.0 0.8670560376136546 0.1615187516598323 0.0 0.0 0.0 0.0 0.8415183310723817 0.1766801636544814 0.0 0.8706608863205032 0.17101307837445476 0.0 1.2125418155193801 0.049334055086005565 0.0 1.2387289722942074 0.06426214410475674 0.0 0.8929426117953119 0.012011500191451932 0.0 0.5957123759192801 -0.02690691910395074 0.0 1.2796502978606312 0.14683129800528702 0.0 0.7176132539259827 -0.17368901792079738 0.0 1.177789319009891 -0.1644951012743216 0.0 0.9980436127952362 -0.02021157124807161 0.0 1.3229691185459906 -0.008523995377990284 0.0 0.587126480513812 -0.000507477780481474 0.0 1.2195721379834186 -0.013307039408925941 0.0 0.9825776722510248 0.008388594004970952 0.0 -0.0011399338939426249 -0.007250159893768209 0.0 -0.09468719170647974 -0.0001092406812050115 0.0 0.9448656104036602 0.34119113157621406 0.0 0.8797004384481985 -0.01982443636259957 0.0 0.43039689975351664 -0.0102731832932287 0.0 0.0 0.0 0.0 1.327712611260907 0.03687049470119584 0.0 1.2137126138008312 0.023784060612785558 0.0 1.3169685672372575 0.11421002283152056 0.0 1.2520210575611883 -0.04352410938942626 0.0 0.4170534884123497 -0.013616443402867542 0.0 1.2274110403798484 0.009468486276938236 0.0 1.2908533705727374 0.05527030741876715 0.0 0.04404506044621935 -0.009254113777723907 0.0 -0.08155666744532872 -0.004980092854158031 0.0 -0.06538851768778312 -0.007353375599890843 0.0 -0.08146833984283847 0.0018705994157613177 0.0 1.1856970794406185 0.21950514536167612 0.0 0.7774308588391827 0.19843970273253864 0.0 0.7779118931173429 0.15421376012730126 0.0 0.7857367256445194 0.10689592362966312 0.0 0.6205677991926078 0.11096697133952248 0.0 0.3564901243049987 -0.0010075825612584656 0.0 0.09674261508440044 0.0014768167306776622 0.0 0.3667818554648272 -0.020884310858077577 0.0 1.071627054290839 0.07650640332756087 0.0 0.0 0.0 0.0 0.5212453839662523 0.010857701768134125 0.0 0.9309091557223537 0.02813280187036441 0.0 -0.10592698169594718 -0.0009148572974254773 0.0 1.096963353691093 0.2668645963405654 0.0 0.9003348981427131 0.11238456987190382 0.0 1.2788497140510986 -0.04853666547911033 0.0 0.18970899970386473 -0.0035903013768552056 0.0 0.36049459146702995 0.01693062659606139 0.0 0.1460716810816211 -0.0002928950609555748 0.0 1.3025411928515749 0.037720522735406666 0.0 -0.1035205983226893 -0.002612574962002414 0.0 -0.07446267400528274 -0.006936169664309428 0.0 -0.09395830663976802 -0.005480946180434958 0.0 -0.04066029634331588 0.004697752900083157 0.0 -0.09122012925459522 -0.0003199610247678331 0.0 -0.11171960322773071 -0.0014220662829104328 0.0 -0.06264919734235197 -0.0031490928715322076 0.0 -0.037355443638905896 0.0015449872231072502 0.0 -0.11530531304431703 -0.0032258323492894954 0.0 0.07889905010329107 -0.00338079378288299 0.0 -0.03540967965195762 0.0034602248227577135 0.0 -0.11877179190902412 -0.0018804723411340045 0.0 -0.11725684092654963 -0.0018294508604304487 0.0 -0.0197874809121694 -0.003017767296070172 0.0 0.0 0.0 0.0 0.9463905274571327 0.2553762715001105 0.0 0.9513529748673913 0.04009718603243362 0.0 0.2279735719618831 -0.006349179020335881 0.0 0.31168275058546896 -0.004321503623633896 0.0 0.5450721430626588 0.020110153389294862 0.0 0.911167627269367 0.04178926622626704 0.0 1.1910490826792277 0.033336930328209 0.0 1.3524493906706703 0.014057546140784895 0.0 0.09140353551748052 0.0013177515344587102 0.0 -0.0318362413221336 -0.0010843378535818232 0.0 0.02483242975808231 -0.010625574083956969 0.0 0.13859155294363368 -0.009248929017765693 0.0 0.12803907285332694 -0.013152132365446817 0.0 0.3171864942828867 -0.022681231699188134 0.0 0.5739822988446388 -0.04816801548168338 0.0 0.858603373801953 -0.05074046502280416 0.0 0.3674239693082132 -0.030103298417323548 0.0 0.5556222814110938 -0.035085161144008316 0.0 0.6497374502471477 -0.04582016068210053 0.0 0.7703676356776306 -0.04077233514340292 0.0 0.25980819245076664 -0.02628824495766253 0.0 1.2719422913501248 -0.06205575836192498 0.0 1.0577652990485769 -0.05061227671150667 0.0 1.2853239873792786 -0.028963751788233308 0.0 1.0487305188189218 -0.0395473212638572 0.0 -0.040949229933479915 -0.007841418669520138 0.0 1.0256054313512766 -0.06402331884941728 0.0 1.0605577711851109 -0.030781088599863837 0.0 1.2279888694280794 -0.10458707029998388 0.0 -0.10668739604340205 -0.0018416163854121283 0.0 0.45942791442164377 -0.04289533322653672 0.0 1.252424568409498 -0.10429930709175873 0.0 0.13238447740433076 -0.0199517257073704 0.0 -0.11853843568451665 -0.0011362175211784389 0.0 1.2616071723167026 -0.08422630634439086 0.0 0.06293580589689243 -0.01945573399423087 0.0 -0.10873412447897808 -0.002333589048552245 0.0 -0.023521009507856957 0.009179546164215046 0.0 0.04629677688220303 -0.01608617963052071 0.0 -0.06662464426738912 -0.007080375858993713 0.0 0.4168501093613084 -0.046270399144107376 0.0 -0.047369994492865684 -0.009719789761002039 0.0 0.11284196741819816 0.03031544422905025 0.0 -0.08010823103491022 0.005382234726826691 0.0 -0.07275084173489564 -0.0055631925321611006 0.0 -0.0983163300761799 0.0010149111899090228 0.0 0.04152014902337075 0.016317873842757687 0.0 1.2177623868474803 0.10428312323164544 0.0 0.3291916890830011 0.035758580791442646 0.0 0.3024844452709015 -0.04295894664334208 0.0 0.25850769365096143 -0.011460878282367047 0.0 0.7099303509470408 -0.021997553584914484 0.0 0.3084281472422382 0.005202623634029121 0.0 1.1755715597709366 0.05175358295530732 0.0 0.887754969091052 0.05959754916084965 0.0 0.9263565818857175 -0.07947300407263702 0.0 -0.04388841009442848 -0.005044206935868168 0.0 -0.055203120000611464 -0.0037934224283448876 0.0 -0.11517642204441648 -0.0019129314805839592 0.0 -0.042000923976918056 0.002924289964371588 0.0 -0.07640921497734471 -0.003986018905005301 0.0 0.32518832032154643 -0.035991799510123795 0.0 1.2588305002793656 -0.09223927009673259 0.0 0.6237497923990915 -0.05842693416613554 0.0 0.890725403100388 -0.08307491514888259 0.0 -0.027638209604384973 0.012606215112969993 0.0 0.059901841354744044 -0.02165732521270255 0.0 -0.008605584309690925 -0.014354529647475573 0.0 0.2063838689729029 -0.03767922180388434 0.0 -0.017286497864087657 -0.013713217301684628 0.0 1.25532519256968 0.10956041885852869 0.0 -0.06707162217593009 -0.0005796099312572484 0.0 -0.014928869535816583 0.011121714682994643 0.0 -0.051916608485109185 0.0005077256522774802 0.0 0.05313705953087419 -0.02143060692109051 0.0 0.3389228750679603 0.023261849593020932 0.0 0.6852208509126457 -0.0670171041375448 0.0 0.504815918391973 -0.05736975967899521 0.0 0.784345233045313 -0.06488094892400902 0.0 0.26315074846451325 -0.03622624123337698 0.0 0.8164390048198679 -0.08648790430865774 0.0 1.1652667404496497 -0.08753312642299378 0.0 1.0653602601982755 -0.08017842111785488 0.0 1.0386405121149693 -0.07152320939062845 0.0 0.5891873243678071 -0.0677001466805887 0.0 0.5007903053932313 -0.06345434862231931 0.0 0.3885169299932788 -0.057256634709978854 0.0 0.36371090016455426 -0.05346184585486483 0.0 0.14232433051010157 -0.0324218428108529 0.0 0.7845545212946817 -0.08830524805473365 0.0 0.26184408133430404 0.01363572430998254 0.0 0.6067525136863802 0.0366146626643498 0.0 0.0703261886419142 0.004786628644710733 0.0 0.1741474995796403 0.0163228945875302 0.0 -0.06631226498058497 -0.0008830704509972817 0.0 1.3326834174792541 -0.025144758832015855 0.0 1.2187206638170673 0.0405041400714164 0.0 1.353609036425853 -0.011962196656879668 0.0 1.326771808403582 -0.0616084053601021 0.0 0.16718286045553388 -0.03561801998586683 0.0 0.3553068983832856 -0.05488743428816333 0.0 0.559084402622468 0.04517475686380548 0.0 0.0899037203190193 0.014165830547058732 0.0 1.308435665963886 0.003160656218812286 0.0 1.346824507046549 -0.031992096593217556 0.0 0.5180658117525342 0.06869388091887255 0.0 1.3283605115988726 -0.07411396368842213 0.0 0.5887087240691395 0.0418364176796984 0.0 1.2824039667411242 0.07108717405515963 0.0 0.3343839581359605 0.031927073886669065 0.0 0.7038881310953365 0.062033397509623715 0.0 1.3351198247772258 0.023299100327486885 0.0 1.2305176936871842 -0.024078857330035987 0.0 1.3198587499025327 -0.08368066394005416 0.0 0.824021546808211 0.059884719425825475 0.0 1.046694300497186 0.07759844456195045 0.0 1.1058107123822247 0.07115145778861233 0.0 1.2679172349592311 0.0957839360699182 0.0 1.129035152539443 0.09546447174504359 0.0 0.9741322776664575 0.07958802877585486 0.0 0.6689526493785541 0.06562172222222322 0.0 1.2763444067663994 -0.08852121324213842 0.0 0.0 0.0 0.0 1.3090111003385145 0.05731087270346261 0.0 0.9168929149978313 0.08858738227935968 0.0 0.3265152236836807 0.040510627048492 0.0 1.3171146730210366 0.06977335892159132 0.0 0.899333538661502 0.0838557181803742 0.0 1.271284709112909 0.0908515135267108 0.0 0.5985202413539495 0.06478927333687486 0.0 1.2632136581298414 0.10377998810005118 0.0 0.549492039984744 0.06757639621385707 0.0 0.25681819897889324 0.03936831899619762 0.0 1.1472099204055801 0.10224572167220174 0.0 0.6617132619830182 0.07370397464422195 0.0 1.073425577406636 0.10338762049032017 0.0 0.8449882211013852 0.08996673734655582 0.0 0.7761577543817065 0.08886382956911344 0.0 1.1954834658177014 0.08708712955482908 0.0 1.11561891309145 0.09115346095157666 0.0 1.3076432548513437 0.08054602025310345 0.0 0.1571478344374163 0.027806801559467735 0.0 1.1542338740114175 0.07927708327399269 0.0 1.2182517911074726 0.10595930881719512 0.0 1.1588262616880323 0.10922521545699077 0.0 1.2358740116402378 0.10464750124536698 0.0 1.2456773296969816 0.10882401567495978 0.0 1.292900278006488 0.0881230578427341 0.0 1.1853210817305586 0.06831787190221005 0.0 0.9462245025097464 0.10202953652694514 0.0 1.2313158082386169 0.09155536031804001 0.0 1.281304878694848 0.09165227576398172 0.0 1.0472428175301463 0.06556742714224244 0.0 1.1645350792178129 0.11089538070464096 0.0 1.080152230579108 0.1104873796950905 0.0 1.0602852828316478 0.10689221181747598 0.0 1.234241950432934 0.10096580072041737 0.0 0.0 0.0 0.0 0.6445180688414915 -0.005612385574057537 0.0 1.0778548538503605 0.4341652450815627 0.0 1.166931803426271 0.42214060670375536 0.0 1.082323041093053 -0.4267123280023219 0.0 0.8655861072178096 -0.22695902770474155 0.0 0.9788670902756491 -0.2554295919208369 0.0 0.8923746119129555 -0.08499034909751434 0.0 1.2222209519498513 -0.05258828315957102 0.0 1.0811289458812405 -0.06409639051174557 0.0 1.1983765806722864 -0.10458793820648259 0.0 1.2649679435722692 -0.08480791544374522 0.0 1.315149985473722 -0.054168558309917625 0.0 -0.0843727774243905 -0.002520032137055845 0.0 -0.04903251267155338 0.005596533396984978 0.0 0.0033020357740903084 0.007447403983257437 0.0 0.0021068131436774024 0.009910800465565976 0.0 0.1519087336900261 0.025133303759836842 0.0 -0.05797061694871317 0.007017466065471823 0.0 0.06417712751651997 0.020863088264602883 0.0 0.22473513671531967 0.036916632055583085 0.0 0.08837831749376662 0.038741894279567486 0.0 -0.037166840142294634 0.014603574176799847 0.0 1.0346365369736827 0.1606226351684009 0.0 -0.06667416700795759 0.0037570723789584087 0.0 1.256080700532382 -0.09939179869733387 0.0 1.141422464032182 -0.09553494038537132 0.0 0.9487394019802802 -0.09071361391391532 0.0 1.1037320568541618 -0.10114623503846132 0.0 1.2416569844708216 -0.10741010870378252 0.0 0.9118408972887865 -0.09518938821705832 0.0 1.248743857585554 -0.1094445947783783 0.0 1.0781257244096931 -0.10607214022119461 0.0 1.1331335492569923 -0.10480787162471977 0.0 0.8639804986324399 -0.09594413672341981 0.0 0.9070692229361528 -0.09794518397621724 0.0 0.6258905694014822 -0.07816336800534208 0.0 1.1050592464666782 -0.10900140936906866 0.0 1.2350540153048573 -0.10791901883284404 0.0 1.0702007832249698 -0.10668223906003804 0.0 1.1705467142332417 -0.08705166272125063 0.0 1.1944022281498425 -0.11113783770525366 0.0 0.682980196632386 -0.08255449913654392 0.0 1.1426121921540269 -0.10687664509345382 0.0 0.9403802312864438 -0.09978059637121921 0.0 0.638404