<?xml version="1.0"?>
<VTKFile type="UnstructuredGrid"  version="0.1"  >
<UnstructuredGrid>
<Piece  NumberOfPoints="1289" NumberOfCells="2413">
<Points>
<DataArray  type="Float64"  NumberOfComponents="3"  format="ascii">0 0 0  0 0.41 0  2.2 0.41 0  2.2 0 0  0.1 0.1 0  0.1 0.3 0  0.8 0.3 0  0.8 0.1 0  0.25 0.2 0  0.248976 0.210065 0  0.245948 0.219718 0  0.241038 0.228563 0  0.234448 0.23624 0  0.226448 0.242432 0  0.217365 0.246888 0  0.207571 0.249423 0  0.197468 0.249936 0  0.187467 0.248404 0  0.17798 0.24489 0  0.169395 0.239539 0  0.162062 0.232569 0  0.156283 0.224265 0  0.152293 0.214968 0  0.150257 0.205058 0  0.150257 0.194942 0  0.152293 0.185032 0  0.156283 0.175735 0  0.162062 0.167431 0  0.169395 0.160461 0  0.17798 0.15511 0  0.187467 0.151596 0  0.197468 0.150064 0  0.207571 0.150577 0  0.217365 0.153112 0  0.226448 0.157568 0  0.234448 0.16376 0  0.241038 0.171437 0  0.245948 0.180282 0  0.248976 0.189935 0  1.1 0 0  1.1 0.41 0  0.1 0.2 0  0.45 0.1 0  0.45 0.3 0  0.55 0 0  0.275 0.1 0  0.275 0.3 0  0.275 0 0  0.55 0.41 0  0 0.205 0  0.825 0 0  0.825 0.41 0  0.275 0.41 0  0.1 0.15 0  0.1875 0.1 0  0.1 0.25 0  0.1875 0.3 0  0.132322 0.2 0  0.241426 0.253518 0  0.241426 0.146482 0  0.264574 0.17974 0  0.264574 0.22026 0  0.138434 0.187348 0  0.153372 0.150948 0  0.148413 0.164094 0  0.176495 0.136535 0  0.22768 0.143571 0  0.138434 0.212652 0  0.148413 0.235906 0  0.176495 0.263465 0  0.22768 0.256429 0  0.23125 0.3 0  0.24769 0.24094 0  0.23125 0.1 0  0.24769 0.15906 0  0.26253 0.193641 0  0.190482 0.137872 0  0.166753 0.146661 0  0.157737 0.244461 0  0.190482 0.262128 0  0.203107 0.261264 0  0.253635 0.22977 0  0.203107 0.138736 0  0.253635 0.17023 0  0.261028 0.206206 0  0.167707 0.251809 0  0.143629 0.224191 0  0.215302 0.2591 0  0.270465 0.245894 0  0.215302 0.1409 0  0.270465 0.154106 0  0.284052 0.202587 0  0.14375 0.3 0  0.209375 0.3 0  0.225966 0.278501 0  0.209375 0.1 0  0.225966 0.121499 0  0.211613 0.273759 0  0.211613 0.126241 0  0.143629 0.175809 0  0.1 0.175 0  0.133484 0.164832 0  0.144491 0.249539 0  0.1 0.225 0  0.133484 0.235168 0  0.3625 0.3 0  0.25691 0.253381 0  0.25691 0.146619 0  0.277205 0.188698 0  0.184724 0.275712 0  0.237372 0.268285 0  0.184724 0.124288 0  0.237372 0.131715 0  0.197578 0.273149 0  0.193656 0.286994 0  0.197578 0.126851 0  0.193656 0.113006 0  0.122953 0.187671 0  0.118362 0.153758 0  0.155372 0.258107 0  0.122953 0.212329 0  0.118362 0.246242 0  0.276394 0.27264 0  0.276394 0.12736 0  0.280965 0.170013 0  0.253125 0.3 0  0.14375 0.1 0  0.253125 0.1 0  0.269489 0.26014 0  0.269489 0.13986 0  0.303639 0.184297 0  0.165625 0.3 0  0.134742 0.273113 0  0.257831 0.274737 0  0.255279 0.128499 0  0.3625 0.1 0  0.165625 0.1 0  0.162031 0.132368 0  0.134955 0.126405 0  0.149334 0.125568 0  0.142936 0.139597 0  0.12695 0.140259 0  0.242514 0.285501 0  0.242514 0.114499 0  0.1 0.125 0  0.117483 0.12555 0  0.11154 0.139776 0  0.121875 0.1 0  0.109143 0.1125 0  0.126805 0.114 0  0.220313 0.29129 0  0.351562 0.287369 0  0.207222 0.2866 0  0.220312 0.10871 0  0.1375 0 0  0.20625 0 0  0.207222 0.1134 0  0.11722 0.17118 0  0.1 0.1625 0  0.0778409 0.16875 0  0.0862762 0.15625 0  0 0.15375 0  0 0.1025 0  0.11722 0.22882 0  0.1 0.2375 0  0 0.3075 0  0.0862762 0.23125 0  0.0598995 0.222547 0  0.0860223 0.2125 0  0.289584 0.181469 0  0.300267 0.16446 0  0.163832 0.269071 0  0.149597 0.273325 0  0.1 0.275 0  0.268498 0.285953 0  0.31875 0.3 0  0.294154 0.254672 0  0.296875 0.3 0  0.293558 0.271845 0  0.285095 0.286799 0  0.324298 0.264316 0  0.307866 0.263745 0  0.317093 0.234901 0  0.315485 0.281219 0  0.316547 0.250625 0  0.344693 0.243731 0  0.331592 0.251147 0  0.35129 0.270663 0  0.338689 0.263683 0  0.340625 0.3 0  0.249849 0.264383 0  0.265097 0.11422 0  0.284688 0.156136 0  0.242188 0.324017 0  0.0856613 0.2625 0  0.132812 0.0612217 0  0.264062 0.0612217 0  0.198437 0.07598340000000001 0  0.0860223 0.1375 0  0.0794526 0.191089 0  0.285228 0.140397 0  0.298655 0.148737 0  0.31875 0.1 0  0.327335 0.15374 0  0.296875 0.1 0  0.312289 0.155283 0  0.313348 0.135607 0  0.321802 0.173916 0  0.298433 0.134116 0  0.112124 0.2625 0  0.127526 0.259083 0  0.121875 0.3 0  0.0682687 0.241503 0  0.1 0.2875 0  0.117762 0.28125 0  0.107813 0.3 0  0.103906 0.313849 0  0.0778409 0.28125 0  0.1375 0.41 0  0.0862762 0.29375 0  0.08886860000000001 0.24375 0  0.307812 0.338778 0  0.307812 0.292227 0  0.33216 0.279164 0  0.387888 0.266414 0  0.264063 0.31948 0  0.110937 0.07598340000000001 0  0.242188 0.07598340000000001 0  0.319914 0.11839 0  0.340625 0.1 0  0.334448 0.133793 0  0.329687 0.108539 0  0.346259 0.118491 0  0.360334 0.173636 0  0.327539 0.205033 0  0.132812 0.288712 0  0.362436 0.278836 0  0.368105 0.259418 0  0.4125 0.41 0  0.329687 0.324017 0  0.329687 0.292306 0  0.285938 0.318952 0  0.417187 0.338778 0  0.324481 0.14148 0  0.351562 0.106771 0  0.40625 0.1 0  0.341028 0.168342 0  0.319221 0.190479 0  0.335292 0.184501 0  0.305563 0.20794 0  0.220313 0.31948 0  0.132812 0.332772 0  0.0865876 0.311259 0  0.0598995 0.302453 0  0.0906541 0.343255 0  0.353543 0.255837 0  0.36574 0.237633 0  0.405007 0.254279 0  0.275795 0.352123 0  0.4125 0 0  0.35493 0.137394 0  0.366563 0.120618 0  0.35917 0.205246 0  0.198438 0.318952 0  0.0626109 0.263892 0  0.40625 0.3 0  0.354809 0.155936 0  0.386512 0.146872 0  0.373101 0.159939 0  0.384375 0.1 0  0.343394 0.19929 0  0.350682 0.185683 0  0.368101 0.189748 0  0.344016 0.221511 0  0.391108 0.213329 0  0.376279 0.204783 0  0.398843 0.182768 0  0.375804 0.222746 0  0.390665 0.196958 0  0.394004 0.23518 0  0.359883 0.222828 0  0.419908 0.204359 0  0.404243 0.204783 0  0.412615 0.224526 0  0.20625 0.41 0  0.165625 0.325257 0  0.0347982 0.244954 0  0.379558 0.247154 0  0.34165 0.147603 0  0.372264 0.136992 0  0.388988 0.121989 0  0.373437 0.108554 0  0.351562 0.31948 0  0.391367 0.16527 0  0.399572 0.223324 0  0.452011 0.227371 0  0.40877 0.239392 0  0.431491 0.237337 0  0.421224 0.250459 0  0.449619 0.262098 0  0.418865 0.276779 0  0.437063 0.252274 0  0.415673 0.263227 0  0.430988 0.266772 0  0.402767 0.273419 0  0.452967 0.244883 0  0.428125 0.3 0  0.408502 0.286186 0  0.384375 0.3 0  0.392267 0.285807 0  0.465927 0.219339 0  0.43489 0.283846 0  0.376424 0.286289 0  0.625 0.3 0  0.473533 0.205186 0  0.461713 0.255517 0  0.5375 0.3 0  0.465725 0.235405 0  0.44631 0.201425 0  0.471875 0.3 0  0.494307 0.227729 0  0.459448 0.206736 0  0.462294 0.180792 0  0.478933 0.227536 0  0.486793 0.21381 0  0.486322 0.251373 0  0.50065 0.215318 0  0.54005 0.175389 0  0.474633 0.189893 0  0.512916 0.208697 0  0.49531 0.199967 0  0.475889 0.175275 0  0.625 0.1 0  0.459311 0.153933 0  0.513645 0.242704 0  0.392892 0.248539 0  0.374815 0.271913 0  0.365974 0.14871 0  0.395312 0.109184 0  0.417061 0.123981 0  0.483196 0.277003 0  0.381967 0.179632 0  0.429898 0.219374 0  0.433473 0.206165 0  0.43149 0.181038 0  0.444208 0.215487 0  0.472985 0.247309 0  0.49375 0.3 0  0.475579 0.262714 0  0.49916 0.274293 0  0.501175 0.184809 0  0.514164 0.225681 0  0.543648 0.214977 0  0.5341630000000001 0.23481 0  0.527396 0.216171 0  0.5375 0.1 0  0.534548 0.202315 0  0.561545 0.192513 0  0.5494289999999999 0.201221 0  0.570923 0.218346 0  0.412582 0.149833 0  0.489327 0.264745 0  0.502439 0.254775 0  0.462391 0.271166 0  0.496775 0.241732 0  0.5294410000000001 0.268606 0  0.482812 0.291099 0  0.46879 0.285038 0  0.452663 0.284065 0  0.51789 0.257882 0  0.53408 0.252026 0  0.560142 0.243543 0  0.545708 0.243474 0  0.547532 0.229019 0  0.55282 0.265323 0  0.398971 0.153424 0  0.400349 0.135684 0  0.410135 0.168145 0  0.428823 0.161323 0  0.415266 0.183779 0  0.329687 0.0810483 0  0.395312 0.0612217 0  0.373437 0.318952 0  0.439062 0.324017 0  0.561816 0.229354 0  0.585029 0.239287 0  0.431827 0.139854 0  0.446796 0.168929 0  0.351562 0.07598340000000001 0  0.395313 0.318944 0  0.54337 0.150762 0  0.460937 0.31948 0  0.418412 0.137529 0  0.428125 0.1 0  0.442783 0.152332 0  0.450742 0.134294 0  0.373437 0.0805201 0  0.384383 0.342558 0  0.482812 0.318952 0  0.429239 0.127457 0  0.444274 0.117405 0  0.426548 0.113815 0  0.49375 0.1 0  0.488954 0.113984 0  0.457973 0.121842 0  0.471621 0.137346 0  0.515625 0.325257 0  0.48125 0.41 0  0.417187 0.07598340000000001 0  0.496363 0.126778 0  0.479043 0.155715 0  0.439062 0.0805201 0  0.481795 0.126919 0  0.471875 0.1 0  0.489227 0.142159 0  0.515625 0.1 0  0.520062 0.147117 0  0.501244 0.161791 0  0.505431 0.112984 0  0.505344 0.14029 0  0.526563 0.119081 0  0.5181750000000001 0.131908 0  0.539868 0.136937 0  0.460937 0.108383 0  0.474242 0.114415 0  0.460937 0.0810483 0  0.487841 0.167168 0  0.526563 0.0612217 0  0.526563 0.106406 0  0.537619 0.112743 0  0.58125 0.1 0  0.559375 0.1 0  0.482812 0.08105569999999999 0  0.471883 0.0587655 0  0.570312 0.129396 0  0.548437 0.07598340000000001 0  0.504687 0.08105569999999999 0  0.49375 0.0470127 0  0.570312 0.112663 0  0.592798 0.12103 0  0.553986 0.12103 0  0.570312 0.0805201 0  0.48125 0 0  0.114787 0.2 0  0.160769 0.284765 0  0.175816 0.288361 0  0.162602 0.116048 0  0.154687 0.07598340000000001 0  0.176562 0.0805201 0  0.0598995 0.147547 0  0.307812 0.109924 0  0.291279 0.117157 0  0.278491 0.112989 0  0.285937 0.07598340000000001 0  0.307812 0.0805201 0  0.296928 0.196743 0  0.318141 0.218507 0  0.330208 0.227509 0  0.301397 0.225668 0  0.302706 0.241401 0  0.292574 0.21424 0  0.282762 0.230935 0  0.284351 0.244775 0  0.269553 0.23261 0  0.278572 0.217242 0  0.226924 0.342606 0  0.446928 0.185396 0  0.515625 0.3 0  0.504687 0.288879 0  0.515256 0.276534 0  0.529479 0.285328 0  0.58125 0.3 0  0.541969 0.272936 0  0.559375 0.3 0  0.556796 0.282529 0  0.543473 0.287206 0  0.581429 0.267774 0  0.566728 0.271171 0  0.570869 0.255585 0  0.577404 0.283865 0  0.603125 0.3 0  0.597531 0.28035 0  0.570312 0.338778 0  0.592188 0.292492 0  0.603513 0.256094 0  0.614063 0.286265 0  0.610329 0.27064 0  0.632708 0.251285 0  0.657223 0.261594 0  0.618789 0.257807 0  0.614188 0.22987 0  0.630935 0.265614 
[...]
<PointData  Vectors="v"> 
	<DataArray  type="Float64"  Name="v"  NumberOfComponents="3" format="ascii">
0.0 0.0 0.0 0.0 0.0 0.0 0.0 0.0 0.0 0.0 0.0 0.0 0.7962539087519785 -0.1960030385857894 0.0 0.8403862188579729 0.20772599047020698 0.0 1.1682056037625415 -0.05533165513708314 0.0 1.137298142006277 0.05796230204660642 0.0 0.0 0.0 0.0 0.0 0.0 0.0 0.0 0.0 0.0 0.0 0.0 0.0 0.0008509615673783028 0.0007743354591376556 0.0 -0.0005663404726026528 -0.0011183902131087658 0.0 0.00022730598294023427 0.0004055039819221065 0.0 0.0 0.0 0.0 0.0 0.0 0.0 0.0 0.0 0.0 0.0 0.0 0.0 0.0 0.0 0.0 0.0 0.0 0.0 0.0 0.0 0.0 0.0 0.0 0.0 0.0 0.0 0.0 0.0 0.0 0.0 0.0 0.0 0.0 0.0 0.0 0.0 0.0 0.0 0.0 0.0 0.0 0.0 0.0 0.0 0.0 0.0 0.0 0.0 0.0 0.0 0.0 0.0 0.0 0.0 0.0006720390576179573 -0.0011666696455553032 0.0 0.0009687161201705076 -0.0015412889545062386 0.0 0.0008650423423148719 -0.0008155114386164316 0.0 0.0 0.0 0.0 0.0 0.0 0.0 0.0 0.0 0.0 0.0 0.0 0.0 0.0 0.0 0.0 0.7613330378698815 -0.0013479885239851498 0.0 1.2750944361917396 0.08363279151642997 0.0 1.2665164746053956 -0.0764663921112491 0.0 0.0 0.0 0.0 1.3535883854430526 -0.13310718910704258 0.0 1.3580383939813616 0.15487678847817798 0.0 0.0 0.0 0.0 0.0 0.0 0.0 1.0 0.0 0.0 0.0 0.0 0.0 0.0 0.0 0.0 0.0 0.0 0.0 0.8426191715792756 -0.2319353174266073 0.0 1.1514367689817786 -0.3442547844951133 0.0 0.8637677169599233 0.2292486004528637 0.0 1.1662480411448695 0.3540578089083299 0.0 0.4282399074113978 -0.004039822785580538 0.0 0.16442432133525664 0.06170636185112642 0.0 0.17094383170344377 -0.06107997745831901 0.0 -0.028189678225076648 -0.03912832093725687 0.0 -0.026872556959837715 0.03705307172906563 0.0 0.3343966189739606 -0.27992194276414417 0.0 0.8579595935227412 -0.6735059182593052 0.0 0.6400479790883351 -0.6882244651540732 0.0 1.2062635179699424 -0.6133030682347095 0.0 0.41495818347617414 -0.06893266175617166 0.0 0.3304373032571474 0.26867269466438215 0.0 0.642804604540845 0.6692645768100846 0.0 1.185125077613215 0.6153542703884481 0.0 0.4092349081040705 0.07104386922895586 0.0 1.3131606883939966 0.26076699075337745 0.0 0.33335497347692755 0.25949377418407427 0.0 1.3025601969380705 -0.2404663341770167 0.0 0.3211331951902851 -0.24399325082562873 0.0 -0.034261736806385584 -0.017394582287893683 0.0 1.1251349969224227 -0.39877395222297635 0.0 1.093320151317551 -0.7243927200582078 0.0 0.852023449508969 0.7706970502695683 0.0 1.1313721660679628 0.3995408115279163 0.0 0.7594312141461651 0.18601719716630497 0.0 0.11035828902262877 0.052878998068579285 0.0 0.7696591197841254 -0.18188319386750668 0.0 0.11255861196909005 -0.05087137830564542 0.0 -0.03035013320729236 0.019561317165874403 0.0 1.0274807214036359 0.7188494268598112 0.0 0.44235620948892196 0.5291268533315499 0.0 0.45845239536306154 0.17832340271564293 0.0 0.2787841596465369 0.07032637196009248 0.0 0.46409312218646437 -0.17292980678468706 0.0 0.28275757006076674 -0.0656466460960292 0.0 -0.07661753497942879 0.0021618480221517024 0.0 0.9654471596512622 0.317377449428139 0.0 1.2605242095014755 0.31315287822138577 0.0 1.2452106774133465 0.28877864337812464 0.0 1.2348243110882207 -0.3075327303573382 0.0 1.2478999793438783 -0.2808041101589916 0.0 1.2202294150234574 0.33102181563299504 0.0 1.2263735895013006 -0.322478016966234 0.0 0.442929166841305 -0.5446517142040322 0.0 0.802032520633228 -0.13968844919888979 0.0 0.6715477185728925 -0.41976007088546446 0.0 0.8773395861356943 0.5937952015900039 0.0 0.7992985835671692 0.14274252121983474 0.0 0.6764718587522099 0.42008628920836083 0.0 1.2924309091324153 -0.0069550614000074415 0.0 0.2967788607659621 0.1475591044284794 0.0 0.2975191077154548 -0.1364733095822615 0.0 -0.055439921398483985 -0.013134370734667266 0.0 1.265047207065446 0.4717931460504756 0.0 0.7689445342780409 0.12051098241620599 0.0 1.261229875970126 -0.47321645952317737 0.0 0.7888577324749336 -0.11523573316897419 0.0 1.275609892786295 0.41805634252816987 0.0 1.253983561808222 0.4011033249426166 0.0 1.2717399726315313 -0.4141243445948181 0.0 1.244757645512164 -0.38100892871530717 0.0 0.583545422525863 -0.16059484874605365 0.0 0.7964660661673164 -0.3318584658417156 0.0 1.01040212948522 0.6037624076129249 0.0 0.5917435924958829 0.15054102470127964 0.0 0.81254426895999 0.3316474541041036 0.0 0.7461712712556706 0.08122751087575754 0.0 0.783041351714274 -0.07331173569297839 0.0 0.05359410685625338 -0.022052165712996678 0.0 1.3633641419676195 0.20740076073413857 0.0 0.9298605935763722 -0.3222170490580013 0.0 1.344392831535289 -0.19003895685150277 0.0 0.41206938931135584 0.09248790649669186 0.0 0.4293316716905442 -0.0792394437111807 0.0 -0.0549571599552779 -0.008062156614370467 0.0 1.05732812128297 0.3539717105448004 0.0 0.9431338321594096 0.3914330532469596 0.0 0.9224616340522352 0.11240994389715371 0.0 0.8239098557538912 -0.08685198429647613 0.0 1.3071855265324928 0.016909751101953488 0.0 1.0275527197616485 -0.34515562499852254 0.0 1.0745716900883353 -0.5703285261011223 0.0 0.9301805146134341 -0.38941001758847615 0.0 0.9975266749339823 -0.4386501139694462 0.0 0.9329899163513531 -0.5428596342264822 0.0 0.8655728688275223 -0.4065350434011424 0.0 1.2731847916041095 0.23279981920828938 0.0 1.2715910095683933 -0.21949682845338742 0.0 0.8526801688534454 -0.23566168187813474 0.0 0.8790846885791702 -0.3099775818356907 0.0 0.852926448684353 -0.2990816992597581 0.0 0.8514385167218561 -0.2564076338958423 0.0 0.8542396142806115 -0.25279918674991403 0.0 0.8963106395960827 -0.31947765759709484 0.0 1.3292259033083285 0.3155376065923484 0.0 1.0845804311674407 -0.0023792785660492377 0.0 1.314584689164083 0.3623193838777251 0.0 1.3212782587147638 -0.29584737325352223 0.0 0.0 0.0 0.0 0.0 0.0 0.0 1.2994731980339307 -0.3493073620846884 0.0 0.7142661675952586 -0.267374878034704 0.0 0.8204114111490005 -0.21081491016992057 0.0 0.8711808589904014 -0.11080361319826641 0.0 0.8624563259001339 -0.16381314644092998 0.0 0.9375 0.0 0.0 0.7500000000000001 0.0 0.0 0.722464313401644 0.26524655126455104 0.0 0.8240277555743692 0.20009062398854074 0.0 0.7499999999999999 0.0 0.0 0.8697113750362424 0.1277697086616475 0.0 0.9287106531591426 0.04279263684082639 0.0 0.8481118333803491 0.045013299281435104 0.0 -0.03523570903723202 -0.011511798852995485 0.0 0.09368932914232138 -0.017346977274880316 0.0 1.1149900765301217 0.5547494141562772 0.0 1.0189872977799426 0.47311334805113814 0.0 0.8809562131956488 0.24543050441941502 0.0 1.2000348734022752 0.1391344142770353 0.0 1.3287455596725752 0.05986835578886272 0.0 0.3571559804708733 0.03820488771118231 0.0 1.3560842915475426 0.10291615288119975 0.0 0.7154155567810477 0.054107400433015214 0.0 1.1712948082330672 0.10034554283612154 0.0 0.5172517168137799 0.015676325415541262 0.0 0.4991481939547162 0.03002924108933282 0.0 0.07199427666522194 0.012296392954083071 0.0 0.9571511731049477 0.03452634270170746 0.0 0.2606907137841824 0.02161111507506277 0.0 0.16582034927834638 0.007631791562016004 0.0 0.2708695060559135 0.01394118290139564 0.0 0.6680069637567827 -0.0049369803980188415 0.0 0.5006320773976837 0.0067201721403131924 0.0 1.3155718880079457 0.01938539244420964 0.0 0.5424074656833219 0.06161309306744132 0.0 1.2300329665323526 -0.14221409511456362 0.0 0.20588522611607687 -0.03783552267083563 0.0 1.205711618068169 0.17355660450314106 0.0 0.8828135928869641 0.17969802557122952 0.0 0.7011408530087125 -0.1679481009304064 0.0 1.1155249919671695 -0.0942629007498254 0.0 1.0385299062901225 -0.22369084595524005 0.0 0.8637682619031596 -0.18268703877759362 0.0 0.8754236476173443 -0.025645713799982293 0.0 0.4423763063924942 -0.04881871031328148 0.0 0.29426600835261607 -0.03332684484281514 0.0 1.3291487068118366 -0.041939802754146695 0.0 0.21129444840446596 -0.013544945086760997 0.0 1.3554547674136257 -0.0864819078151224 0.0 0.1945255924690904 -0.01906764996364235 0.0 0.5377411112025807 -0.016097362731838104 0.0 -0.0006681975024920255 -0.011086008809592384 0.0 0.5740015431492725 -0.032020414989160216 0.0 0.8788740571145363 0.29711322671265505 0.0 0.879540904637217 0.41072858424494446 0.0 0.8850696093406571 0.2703028198483386 0.0 0.9122147684463053 0.10980507817227432 0.0 0.8651624359268714 0.22325920612257408 0.0 0.9047066998876904 0.30368193820554196 0.0 0.857216703673065 0.23348738028349214 0.0 0.8020062388593017 0.18335355696292904 0.0 0.8670432970910189 0.16149333157515053 0.0 0.0 0.0 0.0 0.8415047004852577 0.17665973724728185 0.0 0.8706477381440191 0.17097712473970236 0.0 1.2130006151260861 0.04980173450004934 0.0 1.2376582469407207 0.06496155397141608 0.0 0.890969797532557 0.013155002653190457 0.0 0.5950884165636043 -0.025731247217900648 0.0 1.279745120353882 0.14710733198463447 0.0 0.7176355250409355 -0.17372889397167363 0.0 1.1779154890644443 -0.16449772004698437 0.0 0.9990127414864098 -0.02003174631423512 0.0 1.3238267409082998 -0.007649763402993017 0.0 0.5874622654893075 -0.0003839705332646372 0.0 1.2206910900393704 -0.012684844342953333 0.0 0.9842246422787442 0.009170397637448322 0.0 -0.0034449711967951355 -0.006863816935345131 0.0 -0.09654021080965695 0.0004815143990603847 0.0 0.9448327811629447 0.3411943839438032 0.0 0.8782171888156418 -0.018369917477182578 0.0 0.42939739254536696 -0.008432707020670121 0.0 0.0 0.0 0.0 1.3284797975989002 0.03758626531809826 0.0 1.2126071460600079 0.02494355356228891 0.0 1.3171290782410596 0.11463645515907074 0.0 1.2526793282100606 -0.04389662035282519 0.0 0.41628020132376276 -0.014080849584347835 0.0 1.2287223348154939 0.010647166310538362 0.0 1.2914115972645595 0.057600251949165605 0.0 0.04249477986926361 -0.009748935866300839 0.0 -0.08298889986467678 -0.005337288296702493 0.0 -0.06748769222890266 -0.00758091851657877 0.0 -0.08211916182232197 0.002358549376069767 0.0 1.1857421119857379 0.21966565464964616 0.0 0.7774194325249524 0.19844962614712028 0.0 0.7778992935151685 0.15419876392306048 0.0 0.7857296016081903 0.10687542501790165 0.0 0.6205552422388133 0.11095772682456544 0.0 0.35538720157410797 0.0009403060505519378 0.0 0.09520375207247772 0.003266006041552204 0.0 0.36632972440761613 -0.020053913585930474 0.0 1.071878624803173 0.07674685152727717 0.0 0.0 0.0 0.0 0.5220833788967304 0.011301818062882066 0.0 0.9329805506009613 0.029355909584860135 0.0 -0.108976166536203 0.00019891322600528878 0.0 1.0969622500999034 0.2669896382490383 0.0 0.9003273182795511 0.11235550943708483 0.0 1.280001095310452 -0.04881535204125855 0.0 0.18899864049176354 -0.00362657231686749 0.0 0.3610614922544696 0.0183216715993456 0.0 0.1449237892790335 0.000452710466791605 0.0 1.3033103176523897 0.03978162261939012 0.0 -0.10615094513064331 -0.002016183330699895 0.0 -0.07714441683639259 -0.00661540903390307 0.0 -0.09723360202008184 -0.004481249307547971 0.0 -0.04268042034395692 0.0060786205173386275 0.0 -0.09432490768458583 0.001341188139956423 0.0 -0.11510901783836161 3.0515490407380495e-05 0.0 -0.06591841415227845 -0.0010547175372194934 0.0 -0.04004777261565562 0.003143564322434585 0.0 -0.11881839627802472 -0.001481937760153606 0.0 0.07706831954333176 -0.0018756557646261475 0.0 -0.037737800448995426 0.004979903228815571 0.0 -0.12168105634607268 0.00046411238937078874 0.0 -0.1205429244579694 0.00019422090220779696 0.0 -0.021955903916940703 -0.0014708232617721038 0.0 0.0 0.0 0.0 0.9463738566457774 0.25542958618393147 0.0 0.9513516252591101 0.04007401050268415 0.0 0.22677009611027923 -0.004682950514275853 0.0 0.3112946078159297 -0.004663626143715708 0.0 0.5465162975250768 0.021105068368848172 0.0 0.9136913951680345 0.0434967670488092 0.0 1.1926446905532122 0.03492829678989453 0.0 1.3535017057451506 0.014822399157983114 0.0 0.08949763586758029 0.0029932046295858485 0.0 -0.03431215015401102 0.0005358220991630174 0.0 0.025027860380584944 -0.009244287833802252 0.0 0.13727991207773121 -0.008109758584159172 0.0 0.1276298643046844 -0.012303469581158457 0.0 0.3170792962832072 -0.022265014182006836 0.0 0.5762672285249912 -0.04928658802288536 0.0 0.8593781833924103 -0.051521457798748616 0.0 0.3683170203253 -0.030271853075155612 0.0 0.555995015049503 -0.03502127947609736 0.0 0.6510294261075472 -0.046592610099880145 0.0 0.7703362883857234 -0.040511136273755036 0.0 0.261294550980294 -0.026216727307100132 0.0 1.2727118813300025 -0.06379812878503967 0.0 1.0581793929900623 -0.05110075708428784 0.0 1.2861549277096163 -0.028681144901318904 0.0 1.0486829419421422 -0.03926940579966378 0.0 -0.0403400905243307 -0.0058276387797264 0.0 1.026885453160742 -0.06587866196377966 0.0 1.0599514498042362 -0.029838120718228042 0.0 1.226065261076322 -0.10504807463525338 0.0 -0.10678002098767979 0.0011558293510242684 0.0 0.4621680131827335 -0.043699084776692265 0.0 1.253282923937261 -0.10661828089837258 0.0 0.13423944558936313 -0.01919441647675659 0.0 -0.12042537314595914 0.001784814568447775 0.0 1.2622994793375062 -0.08665789955786433 0.0 0.06646191180486491 -0.018152249848128105 0.0 -0.10964088571951627 0.0004826701818853892 0.0 -0.025615573328199623 0.0131144753816569 0.0 0.048631571448289716 -0.014742053653339785 0.0 -0.06507952266499333 -0.004713160469283183 0.0 0.42127346567183843 -0.04680359744362758 0.0 -0.044688852619831326 -0.0076330415065765786 0.0 0.11053461262991376 0.030770854891555954 0.0 -0.08129432410980936 0.009156203024158517 0.0 -0.07022577654921819 -0.0034140046817092077 0.0 -0.09778738976576623 0.004099122251488486 0.0 0.03961826615850125 0.020420223256861682 0.0 1.2166747633307964 0.10014184894457413 0.0 0.3281308332039599 0.039886789871464594 0.0 0.308523904649352 -0.04289400010297817 0.0 0.2574889815328744 -0.010081589994176268 0.0 0.7088348762358841 -0.020554305981053542 0.0 0.308536944546366 0.005705649900153231 0.0 1.1773092205653335 0.05365998875521853 0.0 0.8903476532930887 0.062033680255034036 0.0 0.9303033214336186 -0.08152462412916091 0.0 -0.046910554661442595 -0.003661328019530375 0.0 -0.0569093316898303 -0.0019514513835718987 0.0 -0.11748729366920382 0.0005827636967257576 0.0 -0.044806239184800395 0.006269354364053066 0.0 -0.07758683924157125 -0.0018348299886511348 0.0 0.328371740066779 -0.036228971630568034 0.0 1.2595265203732378 -0.09322379276920063 0.0 0.6277234495643905 -0.05978832723650341 0.0 0.8954539162292899 -0.08486149943402108 0.0 -0.028645540113542815 0.01590143391558834 0.0 0.06463053138180548 -0.020563522481368144 0.0 -0.00388680406686103 -0.014203542570063489 0.0 0.21297107216083816 -0.03763063153293154 0.0 -0.013014574270302658 -0.012594028986132868 0.0 1.251182181559556 0.10429866817203529 0.0 -0.06480074907765834 0.0005653040556120226 0.0 -0.014512557515929673 0.009869973956506666 0.0 -0.04965573086214079 0.00049081040888417 0.0 0.05874678172613117 -0.02349294330600445 0.0 0.33897599189762473 0.025849560459555734 0.0 0.6900110011948808 -0.06845028609433221 0.0 0.5104116722886708 -0.05809493964263599 0.0 0.787612247121943 -0.06671406290019624 0.0 0.26794143798915876 -0.03599331860002475 0.0 0.8225696607945867 -0.08766178398017807 0.0 1.1673667480180812 -0.09022135862656777 0.0 1.0679533949783255 -0.08243206552754512 0.0 1.0407960692795286 -0.07387832892993029 0.0 0.595612968700513 -0.0685019856019678 0.0 0.5080182311474377 -0.06414498518504406 0.0 0.39626520506902846 -0.058685024259876144 0.0 0.371226863778067 -0.054240232468814806 0.0 0.14895913265765973 -0.032831445172398534 0.0 0.7911711106064305 -0.08944251672464244 0.0 0.26142834483184396 0.0155972120736923 0.0 0.6087650297799307 0.038588170214062176 0.0 0.06804195511205853 0.007392214283099212 0.0 0.17255861180710944 0.019738004262537363 0.0 -0.06947139012734449 0.0018172974792488737 0.0 1.3328402115304123 -0.024357838444663292 0.0 1.2177347648019687 0.0414927709941908 0.0 1.3549550557056496 -0.011701485606548536 0.0 1.3271930621736745 -0.06252871659444942 0.0 0.1740811708916951 -0.03700605743046711 0.0 0.36274021860336364 -0.057845574057955915 0.0 0.5602667697733591 0.04832729782008033 0.0 0.08776434728176204 0.01810814582194929 0.0 1.3083214304317707 0.004242654716094809 0.0 1.348139890136382 -0.03245269451735611 0.0 0.5136552516471576 0.06789030090211576 0.0 1.3278770286416057 -0.07611728645423287 0.0 0.5903935036607123 0.044500372371774816 0.0 1.2823975052691838 0.07276389346034162 0.0 0.333703650589156 0.03570457320721046 0.0 0.7050700398852237 0.06548001486614145 0.0 1.3347888708781481 0.024497243888345344 0.0 1.2312569538280889 -0.02387697428348207 0.0 1.318907160409028 -0.08643947249296134 0.0 0.8262391617165835 0.06263307775024879 0.0 1.0482408349349828 0.0801751750663267 0.0 1.1076218888522438 0.07343017690097145 0.0 1.2651314573148909 0.0983656750963662 0.0 1.1272870400294372 0.09770261768892574 0.0 0.9750980385855047 0.08256473345740864 0.0 0.6688842006613379 0.06911942823223642 0.0 1.2747150783913601 -0.09040365182574327 0.0 0.0 0.0 0.0 1.307566409125898 0.058364611646243916 0.0 0.9156000249155989 0.09025418821653912 0.0 0.324937178343556 0.04453133853221192 0.0 1.3152612067162623 0.07215772980253164 0.0 0.8987509701636087 0.08649407976369235 0.0 1.2696127226059406 0.09172344470563112 0.0 0.5973046500860608 0.06798248572666986 0.0 1.2597828619494102 0.10260985171959475 0.0 0.5464914169923718 0.06887108516133085 0.0 0.25455020829711034 0.04256350148382113 0.0 1.144637261434515 0.10134904730359945 0.0 0.659599151721892 0.07585211850341626 0.0 1.069567960190367 0.10233497746923247 0.0 0.8419927040842013 0.09042519715960175 0.0 0.771776311654978 0.08754709750842854 0.0 1.1951158140411406 0.08958994163510371 0.0 1.1153642579608334 0.09269604210009555 0.0 1.3051970569773996 0.08221215424010442 0.0 0.15522695086339025 0.03175248362193264 0.0 1.1513749493416465 0.07792119281407113 0.0 1.2139749772024477 0.10514631103838816 0.0 1.1543866296646172 0.10568768449892497 0.0 1.2320864881531701 0.10405920386058737 0.0 1.241494388023743 0.10559615416538014 0.0 1.2898446212110495 0.08697227469260414 0.0 1.182240229915269 0.06831681215874395 0.0 0.9403420430864623 0.0981506338206207 0.0 1.2283696534951036 0.09063074674370192 0.0 1.277492284623602 0.09001633559353178 0.0 1.044389499559964 0.06479576624938352 0.0 1.159283061799155 0.10634322781458516 0.0 1.0755362305172016 0.10399385225793799 0.0 1.0558878631923607 0.10365759348168845 0.0 1.231733471878174 0.09444106056755656 0.0 0.0 0.0 0.0 0.6445107564178771 -0.0056513163100214096 0.0 1.0778033185261982 0.434205663733085 0.0 1.1668719383439907 0.4222184072771448 0.0 1.0823231702918097 -0.42675316374401134 0.0 0.8656275556273691 -0.22700042810698678 0.0 0.9789097826582006 -0.2554690272104502 0.0 0.8923768594930808 -0.08502850100502217 0.0 1.2230277254865443 -0.05241922564824878 0.0 1.0815232773932577 -0.0642018341952951 0.0 1.1987767347006109 -0.10464693083557663 0.0 1.265164508134716 -0.08457949237741834 0.0 1.3154076564642363 -0.05373301681090015 0.0 -0.08447815516085443 -0.0027598068334504008 0.0 -0.05019098131404174 0.0067021780222111015 0.0 0.0019969604180474668 0.008954738443760584 0.0 0.0014247971337324208 0.011044049111819191 0.0 0.15031120354554117 0.02609664620338976 0.0 -0.05802895547985405 0.00763080568529159 0.0 0.06302781398924534 0.0213496020933419 0.0 0.222070913769048 0.036983621004893844 0.0 0.08697803097397933 0.03850103447434848 0.0 -0.03699222013332256 0.014858059636378845 0.0 1.0347463950085505 0.16075021065897568 0.0 -0.06909752400130226 0.007397414558203299 0.0 1.2567714736596598 -0.10092704668615524 0.0 1.1440801122697115 -0.0978879082272703 0.0 0.9538558688574669 -0.09212398958163377 0.0 1.1071714504513523 -0.10269844349628147 0.0 1.2413234474011148 -0.1086832370132705 0.0 0.9177192516254802 -0.09621094873053311 0.0 1.2493954856137381 -0.1085242814779143 0.0 1.0818406241893659 -0.1066827307186371 0.0 1.136446261862726 -0.10612632058668725 0.0 0.8696939338144782 -0.0976920992411506 0.0 0.9127464450153551 -0.0994297131024848 0.0 0.6332838944029959 -0.07993167114734107 0.0 1.1081810546322488 -0.10997192039478078 0.0 1.2342714528368668 -0.10852234518273654 0.0 1.072723776780071 -0.10827279675595966 0.0 1.1683104096427874 -0.08700898053802757 0.0 1.1954158907193617 -0.11116189977042314 0.0 0.6889875884683281 -0.08576839414178945 0.0 1.143112493433073 -0.1084545482172634 0.0 0.9440302038581653 -0.102182587634