<?xml version="1.0"?>
<VTKFile type="UnstructuredGrid"  version="0.1"  >
<UnstructuredGrid>
<Piece  NumberOfPoints="1289" NumberOfCells="2413">
<Points>
<DataArray  type="Float64"  NumberOfComponents="3"  format="ascii">0 0 0  0 0.41 0  2.2 0.41 0  2.2 0 0  0.1 0.1 0  0.1 0.3 0  0.8 0.3 0  0.8 0.1 0  0.25 0.2 0  0.248976 0.210065 0  0.245948 0.219718 0  0.241038 0.228563 0  0.234448 0.23624 0  0.226448 0.242432 0  0.217365 0.246888 0  0.207571 0.249423 0  0.197468 0.249936 0  0.187467 0.248404 0  0.17798 0.24489 0  0.169395 0.239539 0  0.162062 0.232569 0  0.156283 0.224265 0  0.152293 0.214968 0  0.150257 0.205058 0  0.150257 0.194942 0  0.152293 0.185032 0  0.156283 0.175735 0  0.162062 0.167431 0  0.169395 0.160461 0  0.17798 0.15511 0  0.187467 0.151596 0  0.197468 0.150064 0  0.207571 0.150577 0  0.217365 0.153112 0  0.226448 0.157568 0  0.234448 0.16376 0  0.241038 0.171437 0  0.245948 0.180282 0  0.248976 0.189935 0  1.1 0 0  1.1 0.41 0  0.1 0.2 0  0.45 0.1 0  0.45 0.3 0  0.55 0 0  0.275 0.1 0  0.275 0.3 0  0.275 0 0  0.55 0.41 0  0 0.205 0  0.825 0 0  0.825 0.41 0  0.275 0.41 0  0.1 0.15 0  0.1875 0.1 0  0.1 0.25 0  0.1875 0.3 0  0.132322 0.2 0  0.241426 0.253518 0  0.241426 0.146482 0  0.264574 0.17974 0  0.264574 0.22026 0  0.138434 0.187348 0  0.153372 0.150948 0  0.148413 0.164094 0  0.176495 0.136535 0  0.22768 0.143571 0  0.138434 0.212652 0  0.148413 0.235906 0  0.176495 0.263465 0  0.22768 0.256429 0  0.23125 0.3 0  0.24769 0.24094 0  0.23125 0.1 0  0.24769 0.15906 0  0.26253 0.193641 0  0.190482 0.137872 0  0.166753 0.146661 0  0.157737 0.244461 0  0.190482 0.262128 0  0.203107 0.261264 0  0.253635 0.22977 0  0.203107 0.138736 0  0.253635 0.17023 0  0.261028 0.206206 0  0.167707 0.251809 0  0.143629 0.224191 0  0.215302 0.2591 0  0.270465 0.245894 0  0.215302 0.1409 0  0.270465 0.154106 0  0.284052 0.202587 0  0.14375 0.3 0  0.209375 0.3 0  0.225966 0.278501 0  0.209375 0.1 0  0.225966 0.121499 0  0.211613 0.273759 0  0.211613 0.126241 0  0.143629 0.175809 0  0.1 0.175 0  0.133484 0.164832 0  0.144491 0.249539 0  0.1 0.225 0  0.133484 0.235168 0  0.3625 0.3 0  0.25691 0.253381 0  0.25691 0.146619 0  0.277205 0.188698 0  0.184724 0.275712 0  0.237372 0.268285 0  0.184724 0.124288 0  0.237372 0.131715 0  0.197578 0.273149 0  0.193656 0.286994 0  0.197578 0.126851 0  0.193656 0.113006 0  0.122953 0.187671 0  0.118362 0.153758 0  0.155372 0.258107 0  0.122953 0.212329 0  0.118362 0.246242 0  0.276394 0.27264 0  0.276394 0.12736 0  0.280965 0.170013 0  0.253125 0.3 0  0.14375 0.1 0  0.253125 0.1 0  0.269489 0.26014 0  0.269489 0.13986 0  0.303639 0.184297 0  0.165625 0.3 0  0.134742 0.273113 0  0.257831 0.274737 0  0.255279 0.128499 0  0.3625 0.1 0  0.165625 0.1 0  0.162031 0.132368 0  0.134955 0.126405 0  0.149334 0.125568 0  0.142936 0.139597 0  0.12695 0.140259 0  0.242514 0.285501 0  0.242514 0.114499 0  0.1 0.125 0  0.117483 0.12555 0  0.11154 0.139776 0  0.121875 0.1 0  0.109143 0.1125 0  0.126805 0.114 0  0.220313 0.29129 0  0.351562 0.287369 0  0.207222 0.2866 0  0.220312 0.10871 0  0.1375 0 0  0.20625 0 0  0.207222 0.1134 0  0.11722 0.17118 0  0.1 0.1625 0  0.0778409 0.16875 0  0.0862762 0.15625 0  0 0.15375 0  0 0.1025 0  0.11722 0.22882 0  0.1 0.2375 0  0 0.3075 0  0.0862762 0.23125 0  0.0598995 0.222547 0  0.0860223 0.2125 0  0.289584 0.181469 0  0.300267 0.16446 0  0.163832 0.269071 0  0.149597 0.273325 0  0.1 0.275 0  0.268498 0.285953 0  0.31875 0.3 0  0.294154 0.254672 0  0.296875 0.3 0  0.293558 0.271845 0  0.285095 0.286799 0  0.324298 0.264316 0  0.307866 0.263745 0  0.317093 0.234901 0  0.315485 0.281219 0  0.316547 0.250625 0  0.344693 0.243731 0  0.331592 0.251147 0  0.35129 0.270663 0  0.338689 0.263683 0  0.340625 0.3 0  0.249849 0.264383 0  0.265097 0.11422 0  0.284688 0.156136 0  0.242188 0.324017 0  0.0856613 0.2625 0  0.132812 0.0612217 0  0.264062 0.0612217 0  0.198437 0.07598340000000001 0  0.0860223 0.1375 0  0.0794526 0.191089 0  0.285228 0.140397 0  0.298655 0.148737 0  0.31875 0.1 0  0.327335 0.15374 0  0.296875 0.1 0  0.312289 0.155283 0  0.313348 0.135607 0  0.321802 0.173916 0  0.298433 0.134116 0  0.112124 0.2625 0  0.127526 0.259083 0  0.121875 0.3 0  0.0682687 0.241503 0  0.1 0.2875 0  0.117762 0.28125 0  0.107813 0.3 0  0.103906 0.313849 0  0.0778409 0.28125 0  0.1375 0.41 0  0.0862762 0.29375 0  0.08886860000000001 0.24375 0  0.307812 0.338778 0  0.307812 0.292227 0  0.33216 0.279164 0  0.387888 0.266414 0  0.264063 0.31948 0  0.110937 0.07598340000000001 0  0.242188 0.07598340000000001 0  0.319914 0.11839 0  0.340625 0.1 0  0.334448 0.133793 0  0.329687 0.108539 0  0.346259 0.118491 0  0.360334 0.173636 0  0.327539 0.205033 0  0.132812 0.288712 0  0.362436 0.278836 0  0.368105 0.259418 0  0.4125 0.41 0  0.329687 0.324017 0  0.329687 0.292306 0  0.285938 0.318952 0  0.417187 0.338778 0  0.324481 0.14148 0  0.351562 0.106771 0  0.40625 0.1 0  0.341028 0.168342 0  0.319221 0.190479 0  0.335292 0.184501 0  0.305563 0.20794 0  0.220313 0.31948 0  0.132812 0.332772 0  0.0865876 0.311259 0  0.0598995 0.302453 0  0.0906541 0.343255 0  0.353543 0.255837 0  0.36574 0.237633 0  0.405007 0.254279 0  0.275795 0.352123 0  0.4125 0 0  0.35493 0.137394 0  0.366563 0.120618 0  0.35917 0.205246 0  0.198438 0.318952 0  0.0626109 0.263892 0  0.40625 0.3 0  0.354809 0.155936 0  0.386512 0.146872 0  0.373101 0.159939 0  0.384375 0.1 0  0.343394 0.19929 0  0.350682 0.185683 0  0.368101 0.189748 0  0.344016 0.221511 0  0.391108 0.213329 0  0.376279 0.204783 0  0.398843 0.182768 0  0.375804 0.222746 0  0.390665 0.196958 0  0.394004 0.23518 0  0.359883 0.222828 0  0.419908 0.204359 0  0.404243 0.204783 0  0.412615 0.224526 0  0.20625 0.41 0  0.165625 0.325257 0  0.0347982 0.244954 0  0.379558 0.247154 0  0.34165 0.147603 0  0.372264 0.136992 0  0.388988 0.121989 0  0.373437 0.108554 0  0.351562 0.31948 0  0.391367 0.16527 0  0.399572 0.223324 0  0.452011 0.227371 0  0.40877 0.239392 0  0.431491 0.237337 0  0.421224 0.250459 0  0.449619 0.262098 0  0.418865 0.276779 0  0.437063 0.252274 0  0.415673 0.263227 0  0.430988 0.266772 0  0.402767 0.273419 0  0.452967 0.244883 0  0.428125 0.3 0  0.408502 0.286186 0  0.384375 0.3 0  0.392267 0.285807 0  0.465927 0.219339 0  0.43489 0.283846 0  0.376424 0.286289 0  0.625 0.3 0  0.473533 0.205186 0  0.461713 0.255517 0  0.5375 0.3 0  0.465725 0.235405 0  0.44631 0.201425 0  0.471875 0.3 0  0.494307 0.227729 0  0.459448 0.206736 0  0.462294 0.180792 0  0.478933 0.227536 0  0.486793 0.21381 0  0.486322 0.251373 0  0.50065 0.215318 0  0.54005 0.175389 0  0.474633 0.189893 0  0.512916 0.208697 0  0.49531 0.199967 0  0.475889 0.175275 0  0.625 0.1 0  0.459311 0.153933 0  0.513645 0.242704 0  0.392892 0.248539 0  0.374815 0.271913 0  0.365974 0.14871 0  0.395312 0.109184 0  0.417061 0.123981 0  0.483196 0.277003 0  0.381967 0.179632 0  0.429898 0.219374 0  0.433473 0.206165 0  0.43149 0.181038 0  0.444208 0.215487 0  0.472985 0.247309 0  0.49375 0.3 0  0.475579 0.262714 0  0.49916 0.274293 0  0.501175 0.184809 0  0.514164 0.225681 0  0.543648 0.214977 0  0.5341630000000001 0.23481 0  0.527396 0.216171 0  0.5375 0.1 0  0.534548 0.202315 0  0.561545 0.192513 0  0.5494289999999999 0.201221 0  0.570923 0.218346 0  0.412582 0.149833 0  0.489327 0.264745 0  0.502439 0.254775 0  0.462391 0.271166 0  0.496775 0.241732 0  0.5294410000000001 0.268606 0  0.482812 0.291099 0  0.46879 0.285038 0  0.452663 0.284065 0  0.51789 0.257882 0  0.53408 0.252026 0  0.560142 0.243543 0  0.545708 0.243474 0  0.547532 0.229019 0  0.55282 0.265323 0  0.398971 0.153424 0  0.400349 0.135684 0  0.410135 0.168145 0  0.428823 0.161323 0  0.415266 0.183779 0  0.329687 0.0810483 0  0.395312 0.0612217 0  0.373437 0.318952 0  0.439062 0.324017 0  0.561816 0.229354 0  0.585029 0.239287 0  0.431827 0.139854 0  0.446796 0.168929 0  0.351562 0.07598340000000001 0  0.395313 0.318944 0  0.54337 0.150762 0  0.460937 0.31948 0  0.418412 0.137529 0  0.428125 0.1 0  0.442783 0.152332 0  0.450742 0.134294 0  0.373437 0.0805201 0  0.384383 0.342558 0  0.482812 0.318952 0  0.429239 0.127457 0  0.444274 0.117405 0  0.426548 0.113815 0  0.49375 0.1 0  0.488954 0.113984 0  0.457973 0.121842 0  0.471621 0.137346 0  0.515625 0.325257 0  0.48125 0.41 0  0.417187 0.07598340000000001 0  0.496363 0.126778 0  0.479043 0.155715 0  0.439062 0.0805201 0  0.481795 0.126919 0  0.471875 0.1 0  0.489227 0.142159 0  0.515625 0.1 0  0.520062 0.147117 0  0.501244 0.161791 0  0.505431 0.112984 0  0.505344 0.14029 0  0.526563 0.119081 0  0.5181750000000001 0.131908 0  0.539868 0.136937 0  0.460937 0.108383 0  0.474242 0.114415 0  0.460937 0.0810483 0  0.487841 0.167168 0  0.526563 0.0612217 0  0.526563 0.106406 0  0.537619 0.112743 0  0.58125 0.1 0  0.559375 0.1 0  0.482812 0.08105569999999999 0  0.471883 0.0587655 0  0.570312 0.129396 0  0.548437 0.07598340000000001 0  0.504687 0.08105569999999999 0  0.49375 0.0470127 0  0.570312 0.112663 0  0.592798 0.12103 0  0.553986 0.12103 0  0.570312 0.0805201 0  0.48125 0 0  0.114787 0.2 0  0.160769 0.284765 0  0.175816 0.288361 0  0.162602 0.116048 0  0.154687 0.07598340000000001 0  0.176562 0.0805201 0  0.0598995 0.147547 0  0.307812 0.109924 0  0.291279 0.117157 0  0.278491 0.112989 0  0.285937 0.07598340000000001 0  0.307812 0.0805201 0  0.296928 0.196743 0  0.318141 0.218507 0  0.330208 0.227509 0  0.301397 0.225668 0  0.302706 0.241401 0  0.292574 0.21424 0  0.282762 0.230935 0  0.284351 0.244775 0  0.269553 0.23261 0  0.278572 0.217242 0  0.226924 0.342606 0  0.446928 0.185396 0  0.515625 0.3 0  0.504687 0.288879 0  0.515256 0.276534 0  0.529479 0.285328 0  0.58125 0.3 0  0.541969 0.272936 0  0.559375 0.3 0  0.556796 0.282529 0  0.543473 0.287206 0  0.581429 0.267774 0  0.566728 0.271171 0  0.570869 0.255585 0  0.577404 0.283865 0  0.603125 0.3 0  0.597531 0.28035 0  0.570312 0.338778 0  0.592188 0.292492 0  0.603513 0.256094 0  0.614063 0.286265 0  0.610329 0.27064 0  0.632708 0.251285 0  0.657223 0.261594 0  0.618789 0.257807 0  0.614188 0.22987 0  0.630935 0.265614 
[...]
<PointData  Vectors="v"> 
	<DataArray  type="Float64"  Name="v"  NumberOfComponents="3" format="ascii">
0.0 0.0 0.0 0.0 0.0 0.0 0.0 0.0 0.0 0.0 0.0 0.0 0.7962059019139648 -0.1959269822346476 0.0 0.8404354730199721 0.2078095190963435 0.0 1.1748033544235321 -0.06333830254034614 0.0 1.131212093636007 0.050885498084612756 0.0 0.0 0.0 0.0 0.0 0.0 0.0 0.0 0.0 0.0 0.0 0.0 0.0 0.000781276364751597 0.0006549975078530461 0.0 -0.00342351693595213 -0.006067500054745643 0.0 -0.0006018095691040253 -0.001029776858243476 0.0 0.0 0.0 0.0 0.0 0.0 0.0 0.0 0.0 0.0 0.0 0.0 0.0 0.0 0.0 0.0 0.0 0.0 0.0 0.0 0.0 0.0 0.0 0.0 0.0 0.0 0.0 0.0 0.0 0.0 0.0 0.0 0.0 0.0 0.0 0.0 0.0 0.0 0.0 0.0 0.0 0.0 0.0 0.0 0.0 0.0 0.0 0.0 0.0 0.0 0.0 0.0 0.0 0.0 0.0 0.0017168383194067565 -0.0029756450992387082 0.0 0.004569991598688413 -0.007780103183379555 0.0 0.0009467466333144431 -0.000960911663576514 0.0 0.0 0.0 0.0 0.0 0.0 0.0 0.0 0.0 0.0 0.0 0.0 0.0 0.0 0.0 0.0 0.7613327084881112 -0.0011902285538410334 0.0 1.2746671995141774 0.08209669212780962 0.0 1.26715729115658 -0.07804721437467495 0.0 0.0 0.0 0.0 1.3536456282420266 -0.13318513074864613 0.0 1.3580581093888326 0.15480771058530693 0.0 0.0 0.0 0.0 0.0 0.0 0.0 1.0 0.0 0.0 0.0 0.0 0.0 0.0 0.0 0.0 0.0 0.0 0.0 0.8425738300311619 -0.23180465637220785 0.0 1.1512780025978948 -0.3442538555958906 0.0 0.8638098538594036 0.22938067067243717 0.0 1.1663944764329481 0.354088531698708 0.0 0.42824093326490675 -0.0038512404377358885 0.0 0.16287793266903067 0.06119539564857495 0.0 0.17279728196019395 -0.061964690220385615 0.0 -0.02804274407029127 -0.038745005783771026 0.0 -0.026630781706380297 0.03711661134019243 0.0 0.33436073744559835 -0.27971475850669486 0.0 0.8578412546063534 -0.6733607550598661 0.0 0.6399462445462514 -0.6880439915169871 0.0 1.2060959528401662 -0.613207604051881 0.0 0.41312089708641353 -0.07067047619203429 0.0 0.33047325038301795 0.26888017955505994 0.0 0.642898654206928 0.6694444206198247 0.0 1.1852628265934013 0.6154527125090019 0.0 0.41046161310279344 0.0697162304745595 0.0 1.3132917337737104 0.26061661005393205 0.0 0.3302793444529182 0.258183135516843 0.0 1.3024572698967218 -0.24071192249177373 0.0 0.32039642549668756 -0.24233988307301546 0.0 -0.03411427104742424 -0.017108419943554283 0.0 1.124969133566032 -0.3986920356792756 0.0 1.0931502789567735 -0.7242631475088556 0.0 0.8521492178105986 0.7708526623127919 0.0 1.1314901193203597 0.39961554039020225 0.0 0.7594606861897545 0.18618000228299544 0.0 0.10977543703163302 0.05263120965310533 0.0 0.7695549707252092 -0.18169639120918807 0.0 0.11248716269443032 -0.05055314615436011 0.0 -0.03014379304060512 0.01961973312367469 0.0 1.0276145590826637 0.7189702053732511 0.0 0.4424374906085988 0.5293291232802358 0.0 0.4592905886031557 0.17892099599622166 0.0 0.27639360564899035 0.07002438540002405 0.0 0.4629423042940987 -0.172121473815291 0.0 0.28217345084023465 -0.06548536656280925 0.0 -0.07627770967390363 0.002713731780369085 0.0 0.9655425175694665 0.31745196965354944 0.0 1.2607025977622084 0.31312986301881546 0.0 1.2456475386715264 0.28872475512444346 0.0 1.2346432998943109 -0.3075984999234269 0.0 1.24735102444131 -0.2809532927900349 0.0 1.220562300264337 0.3311240992668091 0.0 1.2259260090968183 -0.3223984796144332 0.0 0.44284381768048897 -0.5444465850100267 0.0 0.8020047780481542 -0.13953374842055463 0.0 0.6714750123815613 -0.41957691418693827 0.0 0.8774446306394142 0.5939452155263035 0.0 0.799325691005331 0.1428971248541079 0.0 0.6765430515773702 0.4202723958871421 0.0 1.2929646775765038 -0.006977714608162392 0.0 0.295531882028159 0.14674805540659527 0.0 0.2973433677843217 -0.13608831278561265 0.0 -0.05525679316760063 -0.012666134354808832 0.0 1.2652007812279633 0.4718701347740676 0.0 0.7690685073254102 0.12008175448093966 0.0 1.2610496791127828 -0.473158262710298 0.0 0.788615224795688 -0.11593780206597103 0.0 1.275819094448405 0.41815457069650064 0.0 1.2541642870112784 0.4011469478553779 0.0 1.2714727015429903 -0.4140414565389296 0.0 1.2445508946522812 -0.380998836524598 0.0 0.5835145253720875 -0.16040537431327762 0.0 0.7964044400343259 -0.3317070894147021 0.0 1.010527282721118 0.6038865028095021 0.0 0.5917719980038815 0.15073100698178277 0.0 0.8126024956082287 0.3318010533966795 0.0 0.746163395908412 0.08106743819038724 0.0 0.782962447613511 -0.07330632110014895 0.0 0.05339743457254386 -0.02168738418895537 0.0 1.363448845016606 0.2072890476761949 0.0 0.929762667235444 -0.32214851611721745 0.0 1.3443778683957617 -0.19020245139690728 0.0 0.41115032220244613 0.0919788621749133 0.0 0.42909390543470755 -0.07913754330398448 0.0 -0.055022481422366334 -0.0073711885556992625 0.0 1.0574465504970083 0.35402967152143905 0.0 0.9432225072031148 0.3915454658285698 0.0 0.9226309084043728 0.11215687416580829 0.0 0.8237296417680364 -0.08713829637022097 0.0 1.3066895773407359 0.016935738881591406 0.0 1.027425025568123 -0.34511555716440545 0.0 1.0744308654445873 -0.570230154752731 0.0 0.9300829982173803 -0.38930434602715475 0.0 0.9974074645023822 -0.4385577098522018 0.0 0.9328765165101396 -0.5427276713852895 0.0 0.8654910797843315 -0.40640107994679087 0.0 1.2732831383275514 0.23264286516242813 0.0 1.271559030865165 -0.21976270763678712 0.0 0.8526291386205133 -0.23555772080955864 0.0 0.8790117162563696 -0.3098698313493349 0.0 0.8528638256852441 -0.2989575901296193 0.0 0.851363565651507 -0.2563325234510024 0.0 0.8541766656753442 -0.2527084970454291 0.0 0.8962275304038475 -0.31938578825112846 0.0 1.3294628879148516 0.3154745373262253 0.0 1.0849558581140235 -0.00217137365966528 0.0 1.3148103739418557 0.362323069453261 0.0 1.32102558280565 -0.2959986615640869 0.0 0.0 0.0 0.0 0.0 0.0 0.0 1.2992185348708751 -0.3493588925016829 0.0 0.7142234133960608 -0.26720569394354465 0.0 0.8203727096471914 -0.21067351642609894 0.0 0.8711635349431036 -0.11068231518863385 0.0 0.8624276549473543 -0.16369125544740804 0.0 0.9375 0.0 0.0 0.7500000000000001 0.0 0.0 0.7225037500411591 0.2654163197868478 0.0 0.8240638036223993 0.20023425497468808 0.0 0.7499999999999999 0.0 0.0 0.869733591590654 0.127903033408063 0.0 0.928719376056218 0.042887236020035385 0.0 0.8481183155540211 0.045152240227942425 0.0 -0.035241807171933405 -0.010973581587198307 0.0 0.09312697337166294 -0.016897813418420372 0.0 1.115120122827782 0.5548525738506832 0.0 1.0190984515955461 0.4732203567969163 0.0 0.8810039796903401 0.245540171324072 0.0 1.2001830842055479 0.13902783414981731 0.0 1.3289031130732674 0.05995884670767631 0.0 0.355801248021329 0.03832764542727092 0.0 1.3561683171532661 0.10294611730779606 0.0 0.7151267003786893 0.054049026461584895 0.0 1.171383223687181 0.10030362651760949 0.0 0.5168491893921083 0.016059043315596287 0.0 0.49853453597249137 0.030224638607089262 0.0 0.07178299014930764 0.013249087808137642 0.0 0.9571672453377907 0.034675217211226794 0.0 0.26012537058580215 0.022189277791012558 0.0 0.16591465610521938 0.008676755092558622 0.0 0.2705884488394126 0.014686697516551037 0.0 0.6681824150267541 -0.004479130793032687 0.0 0.5005233109455473 0.0072566638185501174 0.0 1.315873238217538 0.01948746795630129 0.0 0.5424312478409591 0.061457340200044994 0.0 1.2298411665177291 -0.14234631211561766 0.0 0.2053299372531017 -0.0375999566847971 0.0 1.2057928842870171 0.17348790424790134 0.0 0.8828454250272235 0.17980696029738852 0.0 0.7010669349179619 -0.16791185179050264 0.0 1.1155124454629246 -0.09431258346898728 0.0 1.0384199847675932 -0.22372413909087246 0.0 0.8637332573242221 -0.18258303025701045 0.0 0.8754196675409409 -0.02551659406119628 0.0 0.4418695570477227 -0.048725714002761274 0.0 0.29353171402861383 -0.03305099522354781 0.0 1.3290252001171494 -0.041787282042609876 0.0 0.2102759536246697 -0.012902667327179797 0.0 1.3554373077483577 -0.08641181319095192 0.0 0.19366678566963325 -0.01858435614401245 0.0 0.5372295874687741 -0.015788111567280504 0.0 -0.0012117266095289375 -0.010298517314049701 0.0 0.5736012267750035 -0.031845276490766294 0.0 0.8789343101347888 0.2972380906952471 0.0 0.8796172892453274 0.4108674904225326 0.0 0.8851392436508696 0.2703878869800464 0.0 0.9122309618869064 0.10990885413156196 0.0 0.8652101449571914 0.2233516318501187 0.0 0.9047751853696366 0.3037890804388111 0.0 0.8572735454023162 0.2335734024754256 0.0 0.8020572846505567 0.18342156502164922 0.0 0.8670747371645663 0.1615801893061504 0.0 0.0 0.0 0.0 0.8415408340956507 0.17674212445534979 0.0 0.8706768526136041 0.17110244299380825 0.0 1.2130710066367698 0.04978077836779953 0.0 1.23776006183044 0.0650692132287237 0.0 0.8910060344804306 0.013424483958728976 0.0 0.5961198087871838 -0.025432649491875327 0.0 1.279785782893254 0.14700855404511098 0.0 0.7175810678218694 -0.17367307181902647 0.0 1.1778747687819293 -0.1645867078303927 0.0 0.9988181275782694 -0.019792618192076474 0.0 1.3235554303040122 -0.0074984108368884705 0.0 0.5868139069063807 9.235719325271969e-05 0.0 1.220474878076556 -0.012451854395180302 0.0 0.9837998741217844 0.00949921407046225 0.0 -0.004349566405436167 -0.005774289641870268 0.0 -0.09642259448490609 0.0016246463276001235 0.0 0.9449184873006258 0.34128984642649757 0.0 0.8786922973414187 -0.01808185506427734 0.0 0.42993050639628033 -0.0077115856999819075 0.0 0.0 0.0 0.0 1.328622937772369 0.03757419985943985 0.0 1.2128109006306613 0.025121174117017194 0.0 1.3171565173723914 0.11459269688473592 0.0 1.2525592569110977 -0.04454253130672708 0.0 0.41546384146991966 -0.013610869730076712 0.0 1.2283163879821124 0.010817977707265425 0.0 1.2906118003639158 0.05695117023383619 0.0 0.04158897680542792 -0.008800174775502653 0.0 -0.08304769250807613 -0.004420277426004326 0.0 -0.06783642617884311 -0.0065399339519543465 0.0 -0.08188857453182459 0.00326981847103514 0.0 1.185861236398665 0.2196053078109517 0.0 0.7774875164830325 0.1985004867745236 0.0 0.777933499178597 0.15426608688823482 0.0 0.7857475213924384 0.1069349555603025 0.0 0.6205911652119267 0.1110029659948558 0.0 0.3555811743620979 0.001749837798036204 0.0 0.09565635145528315 0.004380683383706266 0.0 0.3676239071877197 -0.01995910295784218 0.0 1.0719334320370413 0.07671590545225486 0.0 0.0 0.0 0.0 0.5210141405655946 0.011932013872582385 0.0 0.9322125447557614 0.029648697286388144 0.0 -0.10897685422041577 0.0014707156890756505 0.0 1.0970847833495725 0.2669875965518616 0.0 0.9003444222550074 0.11243889218763864 0.0 1.2809197443059697 -0.04951418625607263 0.0 0.1876737335821302 -0.002720025888902946 0.0 0.35925652174557815 0.01885302220477107 0.0 0.14349324258760573 0.0013834454486906307 0.0 1.302625124659312 0.039513859200083476 0.0 -0.10620908294985767 -0.0008071376010083666 0.0 -0.07758743879613042 -0.005452215679217589 0.0 -0.09765104022550665 -0.0033262419181960532 0.0 -0.04252995720844294 0.0073346085867462395 0.0 -0.0942622677240565 0.0021238349936896633 0.0 -0.11519718087064429 0.001132254973971428 0.0 -0.06667259716181582 -0.0006054447196137054 0.0 -0.039775654000735586 0.0042370461504262465 0.0 -0.11913518980747961 -0.0007505236542099755 0.0 0.07771815525958158 -0.0012049997285179437 0.0 -0.03745649755855762 0.006224616792051375 0.0 -0.12189329023997594 -8.424301600838655e-05 0.0 -0.12071346689234363 0.00044866769945707026 0.0 -0.021638957211245893 -0.0015162806114194266 0.0 0.0 0.0 0.0 0.9464781153853347 0.2554655101439178 0.0 0.9513539616373218 0.04012741206465999 0.0 0.22749154992443008 -0.0038099946549255506 0.0 0.31015539638617745 -0.003943412539189986 0.0 0.5451009614282133 0.02165195416521365 0.0 0.9124027558179022 0.043520698260775426 0.0 1.1919461003458145 0.03493716632318413 0.0 1.353751760282365 0.014758055822801977 0.0 0.0880905795340898 0.0036254954910481174 0.0 -0.03399366789929742 0.0010483898554591682 0.0 0.025210868296483547 -0.011850194298373917 0.0 0.13811052456295983 -0.00799175815257978 0.0 0.12837537176380875 -0.01337799838174325 0.0 0.31842580276276294 -0.022788821739917496 0.0 0.578184651630241 -0.0513072000242434 0.0 0.8610947657482677 -0.0523330898958602 0.0 0.3698330256202029 -0.03164784227086175 0.0 0.5576633340937139 -0.03546193224453013 0.0 0.6529589176429322 -0.047692982491996536 0.0 0.7717560070756935 -0.04072825532823707 0.0 0.26227248318323937 -0.028582621900345693 0.0 1.2735915766093973 -0.06490639923136142 0.0 1.059522815148105 -0.051746347256427606 0.0 1.2869028076219362 -0.028952595693874185 0.0 1.0497704193983795 -0.039489994756461096 0.0 -0.04057423611325183 -0.009637513503795917 0.0 1.0286276189795478 -0.06733207440464216 0.0 1.0607195197790489 -0.02981546019415197 0.0 1.2231191543292192 -0.10014655768801733 0.0 -0.10724081030717847 -0.0034365522327209574 0.0 0.4636042853609118 -0.046437413491496174 0.0 1.2503160951445313 -0.10666087971731492 0.0 0.13445404524133156 -0.022636502625121308 0.0 -0.12081038314694495 -0.000600066225249583 0.0 1.2623208016119334 -0.08846586276725465 0.0 0.06561088518085917 -0.023685897144793713 0.0 -0.10992103002731234 -0.0029761204670037053 0.0 -0.026210832191219002 0.00952599590092456 0.0 0.048174038277576846 -0.019427177592017914 0.0 -0.06572764159520643 -0.010161007518772034 0.0 0.4217057936876544 -0.05081187871399894 0.0 -0.045693085295129096 -0.013870495814124655 0.0 0.11334925988570496 0.024929501570915627 0.0 -0.08169537217605857 0.004485274789389927 0.0 -0.07114187263079791 -0.010416722357797161 0.0 -0.09815864758286054 -0.002137002081980685 0.0 0.039209404750932354 0.01588499828357578 0.0 1.219148524173415 0.10519259321132038 0.0 0.32639093768056576 0.0371145541352037 0.0 0.30683644750665 -0.04822018054341427 0.0 0.25845374101334573 -0.009510616190000756 0.0 0.7095468128436807 -0.02021500660752304 0.0 0.30702838632782536 0.006511589469244184 0.0 1.1762819792695607 0.053271831809357344 0.0 0.8884028869347045 0.061286218562819 0.0 0.9314410458789191 -0.08433185059055932 0.0 -0.047738381415740175 -0.0027715993940151686 0.0 -0.056806830350280585 -0.003060631387887918 0.0 -0.1177099499876247 -0.0008194689785815993 0.0 -0.04560852701649626 0.004972550397237598 0.0 -0.07766278434862108 -0.003959359002165299 0.0 0.32905426410204525 -0.03979932809085369 0.0 1.2586600506816499 -0.09487064641399022 0.0 0.6291678416217941 -0.06295070603670587 0.0 0.8958437941864285 -0.0878927548939851 0.0 -0.028378278445648285 0.00971981189126556 0.0 0.06275631044751179 -0.026868597522187905 0.0 -0.006409461479470479 -0.020693650783053352 0.0 0.2096974527393916 -0.04324761686482394 0.0 -0.0149352328147934 -0.01954089052387401 0.0 1.2541576004901116 0.10460298506523635 0.0 -0.06545248657013723 -0.006517950308661924 0.0 -0.012997559192047153 0.004353863539716342 0.0 -0.05009876766117854 -0.0060722609584474545 0.0 0.05434628254383437 -0.027673846625454235 0.0 0.3368781200742349 0.02565234901837831 0.0 0.6909185176962894 -0.0719581957303175 0.0 0.5101280648295899 -0.062406441073556126 0.0 0.7895216478203142 -0.06918443508141917 0.0 0.2673625290623945 -0.04090992044829186 0.0 0.8206116019622832 -0.0903950852722026 0.0 1.167606173291782 -0.09245728856076832 0.0 1.069190188158407 -0.08475913901519236 0.0 1.0424124184349173 -0.07582730958377394 0.0 0.5943412755967661 -0.07253003252347252 0.0 0.5050274327917796 -0.06816379065849576 0.0 0.39034607141583433 -0.06173623214953673 0.0 0.36679208384874673 -0.05848681640326939 0.0 0.14478467395771874 -0.0383857809992018 0.0 0.7867867372645002 -0.09104227666017099 0.0 0.25955024280233324 0.015919446782384675 0.0 0.6067792037028755 0.038603932751719125 0.0 0.06671851050121855 0.0073363896268837684 0.0 0.1708958241486229 0.0186897682613385 0.0 -0.07020850654204948 0.0015309495599676517 0.0 1.3327314545482458 -0.024315696398905108 0.0 1.217677457777261 0.04109855739567667 0.0 1.3553186310115968 -0.011981164654117844 0.0 1.3269380187141995 -0.0636532888171746 0.0 0.168786910505253 -0.04139227133586523 0.0 0.3543808275977234 -0.058533764221574545 0.0 0.5577956851147129 0.04720137462036576 0.0 0.08663327659072113 0.015867584473138168 0.0 1.308132580838183 0.004205012843759992 0.0 1.3485104576040718 -0.0329803118542401 0.0 0.5172799008292848 0.06437026364743746 0.0 1.3273315167827355 -0.07742660885633987 0.0 0.5880913319999439 0.04389370924829284 0.0 1.2816157182579202 0.07162456881544017 0.0 0.3316549210332901 0.03390817340012372 0.0 0.7026072780477501 0.06343919522288784 0.0 1.33449088771805 0.024293576893987368 0.0 1.2313323787485506 -0.024209237544579505 0.0 1.3177474630229729 -0.08764801098873744 0.0 0.8240197299333505 0.06150416185807859 0.0 1.0465114671764884 0.07848090192076701 0.0 1.1060512107543454 0.0722381139217729 0.0 1.266199412263788 0.0968835332049558 0.0 1.1270876478048328 0.09545667500634569 0.0 0.9732309104094204 0.08040379400604827 0.0 0.6668148688102171 0.06616376516215648 0.0 1.2725526136630907 -0.09074911901066324 0.0 0.0 0.0 0.0 1.3075454328246652 0.057587241490969526 0.0 0.9149408067866931 0.08738667627007685 0.0 0.3239150396879016 0.040548366477102485 0.0 1.3153783943885113 0.07104528110849848 0.0 0.8973423845169505 0.083649184333491 0.0 1.2697911729661913 0.09003762691100259 0.0 0.596097843514134 0.06427350577029088 0.0 1.2618925385321873 0.10186077364490238 0.0 0.5476893095020435 0.06473591757743104 0.0 0.25488133915551486 0.03737195623058928 0.0 1.1454821460694917 0.09944360425179909 0.0 0.6593698269373551 0.07208292449457719 0.0 1.0714560006147946 0.10088315052235686 0.0 0.8427704491936101 0.08759853134820167 0.0 0.77465758642177 0.08537222160499819 0.0 1.1943330342945857 0.08764503424339233 0.0 1.1145196638383297 0.09045488507906659 0.0 1.305828082636455 0.08096560296369402 0.0 0.15501119894272036 0.026824408940784025 0.0 1.153294315631856 0.07839091363288354 0.0 1.2163742815627772 0.1045042493286843 0.0 1.1572916708076957 0.1053647507451155 0.0 1.2359342680516208 0.10721270741953194 0.0 1.2452524976767425 0.10729908073802082 0.0 1.2911713451189324 0.08591538306608992 0.0 1.183257767895368 0.06776390554862824 0.0 0.9459672696567851 0.09923548185851046 0.0 1.2308232888484434 0.09196874844396351 0.0 1.279363628903331 0.08945735501456514 0.0 1.0459639846410933 0.06463357929281524 0.0 1.1639226273315355 0.10852220150712226 0.0 1.0818246183094704 0.1077595406729659 0.0 1.0599001094795264 0.1039192863677817 0.0 1.2343619727750834 0.09692818438362158 0.0 0.0 0.0 0.0 0.6445108269968561 -0.005480035612970981 0.0 1.0779233300711402 0.43428880715725277 0.0 1.1670149102774299 0.4222804260836654 0.0 1.082183725140134 -0.4266848357988598 0.0 0.865532069913206 -0.22697248628759809 0.0 0.9787933222902017 -0.255464271375684 0.0 0.8923622417074702 -0.08494555931573577 0.0 1.222922051584295 -0.05227468813903014 0.0 1.0813884995274046 -0.06413238697636138 0.0 1.1987047311074266 -0.10466898630034953 0.0 1.2651711380703454 -0.08458500801849807 0.0 1.3154134455632196 -0.05368605176424971 0.0 -0.08425790611554082 -0.00204627540091351 0.0 -0.050053149574657195 0.007763679424781275 0.0 0.0021073565666580897 0.010081268656950776 0.0 0.0013670760159138476 0.01192527844668061 0.0 0.14957676949788634 0.0267134121954165 0.0 -0.057765945598017655 0.008382051945319496 0.0 0.0625184452122478 0.02192363437280332 0.0 0.22058234714507935 0.0372524178561852 0.0 0.0861989187353786 0.0386463398707599 0.0 -0.03674864120139748 0.015371798194851611 0.0 1.0348364724172576 0.16071432108477127 0.0 -0.06975418071230402 0.00498689956386596 0.0 1.2548384758449198 -0.10196402341363958 0.0 1.143387219198832 -0.0999759278823996 0.0 0.9530363450262246 -0.09467347625168487 0.0 1.1049750291497777 -0.1040595890369386 0.0 1.2372731722248962 -0.10588257003668648 0.0 0.9146266359213645 -0.09782678633860026 0.0 1.245571795272173 -0.10710675317708346 0.0 1.077687477834245 -0.10633179331366882 0.0 1.133235124352133 -0.10642244935106568 0.0 0.8627221390827065 -0.09612660514389569 0.0 0.9073780664026457 -0.0990660194531175 0.0 0.626542915877098 -0.0807606777498211 0.0 1.102851041888014 -0.10785557853331522 0.0 1.2303721179561453 -0.10443108932819517 0.0 1.0662301803140444 -0.10452916121490366 0.0 1.1665257405782798 -0.085250693272286 0.0 1.1905350868726279 -0.10751655821639884 0.0 0.6793069001448738 -0.08260431322939076 0.0 1.1375029133656285 -0.10344196974165855 0.0 0.9357535927701593 -0.09754811743551471 0.0 0.631158817061