<?xml version="1.0"?>
<VTKFile type="UnstructuredGrid"  version="0.1"  >
<UnstructuredGrid>
<Piece  NumberOfPoints="1289" NumberOfCells="2413">
<Points>
<DataArray  type="Float64"  NumberOfComponents="3"  format="ascii">0 0 0  0 0.41 0  2.2 0.41 0  2.2 0 0  0.1 0.1 0  0.1 0.3 0  0.8 0.3 0  0.8 0.1 0  0.25 0.2 0  0.248976 0.210065 0  0.245948 0.219718 0  0.241038 0.228563 0  0.234448 0.23624 0  0.226448 0.242432 0  0.217365 0.246888 0  0.207571 0.249423 0  0.197468 0.249936 0  0.187467 0.248404 0  0.17798 0.24489 0  0.169395 0.239539 0  0.162062 0.232569 0  0.156283 0.224265 0  0.152293 0.214968 0  0.150257 0.205058 0  0.150257 0.194942 0  0.152293 0.185032 0  0.156283 0.175735 0  0.162062 0.167431 0  0.169395 0.160461 0  0.17798 0.15511 0  0.187467 0.151596 0  0.197468 0.150064 0  0.207571 0.150577 0  0.217365 0.153112 0  0.226448 0.157568 0  0.234448 0.16376 0  0.241038 0.171437 0  0.245948 0.180282 0  0.248976 0.189935 0  1.1 0 0  1.1 0.41 0  0.1 0.2 0  0.45 0.1 0  0.45 0.3 0  0.55 0 0  0.275 0.1 0  0.275 0.3 0  0.275 0 0  0.55 0.41 0  0 0.205 0  0.825 0 0  0.825 0.41 0  0.275 0.41 0  0.1 0.15 0  0.1875 0.1 0  0.1 0.25 0  0.1875 0.3 0  0.132322 0.2 0  0.241426 0.253518 0  0.241426 0.146482 0  0.264574 0.17974 0  0.264574 0.22026 0  0.138434 0.187348 0  0.153372 0.150948 0  0.148413 0.164094 0  0.176495 0.136535 0  0.22768 0.143571 0  0.138434 0.212652 0  0.148413 0.235906 0  0.176495 0.263465 0  0.22768 0.256429 0  0.23125 0.3 0  0.24769 0.24094 0  0.23125 0.1 0  0.24769 0.15906 0  0.26253 0.193641 0  0.190482 0.137872 0  0.166753 0.146661 0  0.157737 0.244461 0  0.190482 0.262128 0  0.203107 0.261264 0  0.253635 0.22977 0  0.203107 0.138736 0  0.253635 0.17023 0  0.261028 0.206206 0  0.167707 0.251809 0  0.143629 0.224191 0  0.215302 0.2591 0  0.270465 0.245894 0  0.215302 0.1409 0  0.270465 0.154106 0  0.284052 0.202587 0  0.14375 0.3 0  0.209375 0.3 0  0.225966 0.278501 0  0.209375 0.1 0  0.225966 0.121499 0  0.211613 0.273759 0  0.211613 0.126241 0  0.143629 0.175809 0  0.1 0.175 0  0.133484 0.164832 0  0.144491 0.249539 0  0.1 0.225 0  0.133484 0.235168 0  0.3625 0.3 0  0.25691 0.253381 0  0.25691 0.146619 0  0.277205 0.188698 0  0.184724 0.275712 0  0.237372 0.268285 0  0.184724 0.124288 0  0.237372 0.131715 0  0.197578 0.273149 0  0.193656 0.286994 0  0.197578 0.126851 0  0.193656 0.113006 0  0.122953 0.187671 0  0.118362 0.153758 0  0.155372 0.258107 0  0.122953 0.212329 0  0.118362 0.246242 0  0.276394 0.27264 0  0.276394 0.12736 0  0.280965 0.170013 0  0.253125 0.3 0  0.14375 0.1 0  0.253125 0.1 0  0.269489 0.26014 0  0.269489 0.13986 0  0.303639 0.184297 0  0.165625 0.3 0  0.134742 0.273113 0  0.257831 0.274737 0  0.255279 0.128499 0  0.3625 0.1 0  0.165625 0.1 0  0.162031 0.132368 0  0.134955 0.126405 0  0.149334 0.125568 0  0.142936 0.139597 0  0.12695 0.140259 0  0.242514 0.285501 0  0.242514 0.114499 0  0.1 0.125 0  0.117483 0.12555 0  0.11154 0.139776 0  0.121875 0.1 0  0.109143 0.1125 0  0.126805 0.114 0  0.220313 0.29129 0  0.351562 0.287369 0  0.207222 0.2866 0  0.220312 0.10871 0  0.1375 0 0  0.20625 0 0  0.207222 0.1134 0  0.11722 0.17118 0  0.1 0.1625 0  0.0778409 0.16875 0  0.0862762 0.15625 0  0 0.15375 0  0 0.1025 0  0.11722 0.22882 0  0.1 0.2375 0  0 0.3075 0  0.0862762 0.23125 0  0.0598995 0.222547 0  0.0860223 0.2125 0  0.289584 0.181469 0  0.300267 0.16446 0  0.163832 0.269071 0  0.149597 0.273325 0  0.1 0.275 0  0.268498 0.285953 0  0.31875 0.3 0  0.294154 0.254672 0  0.296875 0.3 0  0.293558 0.271845 0  0.285095 0.286799 0  0.324298 0.264316 0  0.307866 0.263745 0  0.317093 0.234901 0  0.315485 0.281219 0  0.316547 0.250625 0  0.344693 0.243731 0  0.331592 0.251147 0  0.35129 0.270663 0  0.338689 0.263683 0  0.340625 0.3 0  0.249849 0.264383 0  0.265097 0.11422 0  0.284688 0.156136 0  0.242188 0.324017 0  0.0856613 0.2625 0  0.132812 0.0612217 0  0.264062 0.0612217 0  0.198437 0.07598340000000001 0  0.0860223 0.1375 0  0.0794526 0.191089 0  0.285228 0.140397 0  0.298655 0.148737 0  0.31875 0.1 0  0.327335 0.15374 0  0.296875 0.1 0  0.312289 0.155283 0  0.313348 0.135607 0  0.321802 0.173916 0  0.298433 0.134116 0  0.112124 0.2625 0  0.127526 0.259083 0  0.121875 0.3 0  0.0682687 0.241503 0  0.1 0.2875 0  0.117762 0.28125 0  0.107813 0.3 0  0.103906 0.313849 0  0.0778409 0.28125 0  0.1375 0.41 0  0.0862762 0.29375 0  0.08886860000000001 0.24375 0  0.307812 0.338778 0  0.307812 0.292227 0  0.33216 0.279164 0  0.387888 0.266414 0  0.264063 0.31948 0  0.110937 0.07598340000000001 0  0.242188 0.07598340000000001 0  0.319914 0.11839 0  0.340625 0.1 0  0.334448 0.133793 0  0.329687 0.108539 0  0.346259 0.118491 0  0.360334 0.173636 0  0.327539 0.205033 0  0.132812 0.288712 0  0.362436 0.278836 0  0.368105 0.259418 0  0.4125 0.41 0  0.329687 0.324017 0  0.329687 0.292306 0  0.285938 0.318952 0  0.417187 0.338778 0  0.324481 0.14148 0  0.351562 0.106771 0  0.40625 0.1 0  0.341028 0.168342 0  0.319221 0.190479 0  0.335292 0.184501 0  0.305563 0.20794 0  0.220313 0.31948 0  0.132812 0.332772 0  0.0865876 0.311259 0  0.0598995 0.302453 0  0.0906541 0.343255 0  0.353543 0.255837 0  0.36574 0.237633 0  0.405007 0.254279 0  0.275795 0.352123 0  0.4125 0 0  0.35493 0.137394 0  0.366563 0.120618 0  0.35917 0.205246 0  0.198438 0.318952 0  0.0626109 0.263892 0  0.40625 0.3 0  0.354809 0.155936 0  0.386512 0.146872 0  0.373101 0.159939 0  0.384375 0.1 0  0.343394 0.19929 0  0.350682 0.185683 0  0.368101 0.189748 0  0.344016 0.221511 0  0.391108 0.213329 0  0.376279 0.204783 0  0.398843 0.182768 0  0.375804 0.222746 0  0.390665 0.196958 0  0.394004 0.23518 0  0.359883 0.222828 0  0.419908 0.204359 0  0.404243 0.204783 0  0.412615 0.224526 0  0.20625 0.41 0  0.165625 0.325257 0  0.0347982 0.244954 0  0.379558 0.247154 0  0.34165 0.147603 0  0.372264 0.136992 0  0.388988 0.121989 0  0.373437 0.108554 0  0.351562 0.31948 0  0.391367 0.16527 0  0.399572 0.223324 0  0.452011 0.227371 0  0.40877 0.239392 0  0.431491 0.237337 0  0.421224 0.250459 0  0.449619 0.262098 0  0.418865 0.276779 0  0.437063 0.252274 0  0.415673 0.263227 0  0.430988 0.266772 0  0.402767 0.273419 0  0.452967 0.244883 0  0.428125 0.3 0  0.408502 0.286186 0  0.384375 0.3 0  0.392267 0.285807 0  0.465927 0.219339 0  0.43489 0.283846 0  0.376424 0.286289 0  0.625 0.3 0  0.473533 0.205186 0  0.461713 0.255517 0  0.5375 0.3 0  0.465725 0.235405 0  0.44631 0.201425 0  0.471875 0.3 0  0.494307 0.227729 0  0.459448 0.206736 0  0.462294 0.180792 0  0.478933 0.227536 0  0.486793 0.21381 0  0.486322 0.251373 0  0.50065 0.215318 0  0.54005 0.175389 0  0.474633 0.189893 0  0.512916 0.208697 0  0.49531 0.199967 0  0.475889 0.175275 0  0.625 0.1 0  0.459311 0.153933 0  0.513645 0.242704 0  0.392892 0.248539 0  0.374815 0.271913 0  0.365974 0.14871 0  0.395312 0.109184 0  0.417061 0.123981 0  0.483196 0.277003 0  0.381967 0.179632 0  0.429898 0.219374 0  0.433473 0.206165 0  0.43149 0.181038 0  0.444208 0.215487 0  0.472985 0.247309 0  0.49375 0.3 0  0.475579 0.262714 0  0.49916 0.274293 0  0.501175 0.184809 0  0.514164 0.225681 0  0.543648 0.214977 0  0.5341630000000001 0.23481 0  0.527396 0.216171 0  0.5375 0.1 0  0.534548 0.202315 0  0.561545 0.192513 0  0.5494289999999999 0.201221 0  0.570923 0.218346 0  0.412582 0.149833 0  0.489327 0.264745 0  0.502439 0.254775 0  0.462391 0.271166 0  0.496775 0.241732 0  0.5294410000000001 0.268606 0  0.482812 0.291099 0  0.46879 0.285038 0  0.452663 0.284065 0  0.51789 0.257882 0  0.53408 0.252026 0  0.560142 0.243543 0  0.545708 0.243474 0  0.547532 0.229019 0  0.55282 0.265323 0  0.398971 0.153424 0  0.400349 0.135684 0  0.410135 0.168145 0  0.428823 0.161323 0  0.415266 0.183779 0  0.329687 0.0810483 0  0.395312 0.0612217 0  0.373437 0.318952 0  0.439062 0.324017 0  0.561816 0.229354 0  0.585029 0.239287 0  0.431827 0.139854 0  0.446796 0.168929 0  0.351562 0.07598340000000001 0  0.395313 0.318944 0  0.54337 0.150762 0  0.460937 0.31948 0  0.418412 0.137529 0  0.428125 0.1 0  0.442783 0.152332 0  0.450742 0.134294 0  0.373437 0.0805201 0  0.384383 0.342558 0  0.482812 0.318952 0  0.429239 0.127457 0  0.444274 0.117405 0  0.426548 0.113815 0  0.49375 0.1 0  0.488954 0.113984 0  0.457973 0.121842 0  0.471621 0.137346 0  0.515625 0.325257 0  0.48125 0.41 0  0.417187 0.07598340000000001 0  0.496363 0.126778 0  0.479043 0.155715 0  0.439062 0.0805201 0  0.481795 0.126919 0  0.471875 0.1 0  0.489227 0.142159 0  0.515625 0.1 0  0.520062 0.147117 0  0.501244 0.161791 0  0.505431 0.112984 0  0.505344 0.14029 0  0.526563 0.119081 0  0.5181750000000001 0.131908 0  0.539868 0.136937 0  0.460937 0.108383 0  0.474242 0.114415 0  0.460937 0.0810483 0  0.487841 0.167168 0  0.526563 0.0612217 0  0.526563 0.106406 0  0.537619 0.112743 0  0.58125 0.1 0  0.559375 0.1 0  0.482812 0.08105569999999999 0  0.471883 0.0587655 0  0.570312 0.129396 0  0.548437 0.07598340000000001 0  0.504687 0.08105569999999999 0  0.49375 0.0470127 0  0.570312 0.112663 0  0.592798 0.12103 0  0.553986 0.12103 0  0.570312 0.0805201 0  0.48125 0 0  0.114787 0.2 0  0.160769 0.284765 0  0.175816 0.288361 0  0.162602 0.116048 0  0.154687 0.07598340000000001 0  0.176562 0.0805201 0  0.0598995 0.147547 0  0.307812 0.109924 0  0.291279 0.117157 0  0.278491 0.112989 0  0.285937 0.07598340000000001 0  0.307812 0.0805201 0  0.296928 0.196743 0  0.318141 0.218507 0  0.330208 0.227509 0  0.301397 0.225668 0  0.302706 0.241401 0  0.292574 0.21424 0  0.282762 0.230935 0  0.284351 0.244775 0  0.269553 0.23261 0  0.278572 0.217242 0  0.226924 0.342606 0  0.446928 0.185396 0  0.515625 0.3 0  0.504687 0.288879 0  0.515256 0.276534 0  0.529479 0.285328 0  0.58125 0.3 0  0.541969 0.272936 0  0.559375 0.3 0  0.556796 0.282529 0  0.543473 0.287206 0  0.581429 0.267774 0  0.566728 0.271171 0  0.570869 0.255585 0  0.577404 0.283865 0  0.603125 0.3 0  0.597531 0.28035 0  0.570312 0.338778 0  0.592188 0.292492 0  0.603513 0.256094 0  0.614063 0.286265 0  0.610329 0.27064 0  0.632708 0.251285 0  0.657223 0.261594 0  0.618789 0.257807 0  0.614188 0.22987 0  0.630935 0.265614 
[...]
<PointData  Vectors="v"> 
	<DataArray  type="Float64"  Name="v"  NumberOfComponents="3" format="ascii">
0.0 0.0 0.0 0.0 0.0 0.0 0.0 0.0 0.0 0.0 0.0 0.0 0.7962629787961077 -0.19603391292592473 0.0 0.840376137926031 0.20769684776737013 0.0 1.1638789699770735 -0.055822785281481775 0.0 1.1421184367008634 0.05896379550346681 0.0 0.0 0.0 0.0 0.0 0.0 0.0 0.0 0.0 0.0 0.0 0.0 0.0 0.0009473895523778381 0.0009453710320454766 0.0 0.003650009510323148 0.006185247715228942 0.0 0.0014496148901050564 0.002521534246929075 0.0 0.0 0.0 0.0 0.0 0.0 0.0 0.0 0.0 0.0 0.0 0.0 0.0 0.0 0.0 0.0 0.0 0.0 0.0 0.0 0.0 0.0 0.0 0.0 0.0 0.0 0.0 0.0 0.0 0.0 0.0 0.0 0.0 0.0 0.0 0.0 0.0 0.0 0.0 0.0 0.0 0.0 0.0 0.0 0.0 0.0 0.0 0.0 0.0 0.0 0.0 0.0 0.0 0.0 0.0 -0.0006117517337526696 0.0010557092759167126 0.0 -0.0034602991151818302 0.006130391638384552 0.0 0.0007619378363808781 -0.000634351759524661 0.0 0.0 0.0 0.0 0.0 0.0 0.0 0.0 0.0 0.0 0.0 0.0 0.0 0.0 0.0 0.0 0.7613316645902389 -0.001398311631084804 0.0 1.2764868656291715 0.08357140799708497 0.0 1.265141974628869 -0.07663283009924118 0.0 0.0 0.0 0.0 1.353518900774923 -0.13289486709978304 0.0 1.3581520615641285 0.1549753158353858 0.0 0.0 0.0 0.0 0.0 0.0 0.0 1.0 0.0 0.0 0.0 0.0 0.0 0.0 0.0 0.0 0.0 0.0 0.0 0.8426275215166691 -0.2319793576672481 0.0 1.1515185361389288 -0.34433648522847 0.0 0.8637590942415089 0.2292060226593266 0.0 1.1661717635632929 0.353983749782007 0.0 0.4282377171773027 -0.004115822025094147 0.0 0.16760146631075454 0.06294126247505297 0.0 0.1676032448363411 -0.0597278749278511 0.0 -0.028368834765179256 -0.038886834478054584 0.0 -0.02659423799142591 0.0371996731117321 0.0 0.33440714378469616 -0.2800055736106714 0.0 0.8579816864181548 -0.6735788403709192 0.0 0.6400713055979197 -0.6882941330302252 0.0 1.2062608643447383 -0.6133810484701178 0.0 0.41817576679825524 -0.06744388370005305 0.0 0.33042445573162826 0.2685882369698485 0.0 0.6427784295729648 0.6691903769303371 0.0 1.1851194426541338 0.615280982806548 0.0 0.406252598722571 0.07255772342573454 0.0 1.313054022649065 0.26097332429745806 0.0 0.33235610089233886 0.2574541152760463 0.0 1.3027006741269112 -0.24025283756851387 0.0 0.3209026141318185 -0.2452225302327193 0.0 -0.034257653293597506 -0.01712541984510071 0.0 1.124970244615803 -0.39881944872467573 0.0 1.0933184976858599 -0.7244431406470652 0.0 0.8519995950705005 0.770638180669107 0.0 1.1315034276828755 0.3994971952417055 0.0 0.7596774066982016 0.18582956225911343 0.0 0.11039331796015507 0.05262981684290461 0.0 0.7693701619135117 -0.18208368443244174 0.0 0.11230211838283978 -0.05100315062812926 0.0 -0.030262840009008404 0.019770127464487957 0.0 1.027478768413964 0.7188088093901296 0.0 0.44232964696130533 0.5290458295516618 0.0 0.4571269800719215 0.1765464918307142 0.0 0.2787385344526122 0.07042319941291073 0.0 0.46545603324512885 -0.17483353532675736 0.0 0.28191579519367443 -0.06542344432773768 0.0 -0.07649063117661811 0.0023675842522772965 0.0 0.9654187331761107 0.31732446322108143 0.0 1.2603870157044268 0.31308737291615285 0.0 1.2448616298698085 0.2886914059998025 0.0 1.234976108597481 -0.3076143952761675 0.0 1.2483006772901033 -0.2809091936944205 0.0 1.220126208069736 0.33078558526379903 0.0 1.2264672585935543 -0.3227505908665427 0.0 0.44295367018767623 -0.5447305802988228 0.0 0.8020384532835503 -0.13973867996338507 0.0 0.6715648091337509 -0.41984032777844094 0.0 0.8773163911621825 0.593728227520456 0.0 0.7992909271824176 0.14269365042658808 0.0 0.6764526458517632 0.42000808611984386 0.0 1.2926196781994872 -0.007494089944121845 0.0 0.2971948136382054 0.14702382380248522 0.0 0.2965756548615836 -0.13653345662586439 0.0 -0.05549485458440729 -0.012889677137371526 0.0 1.2650259817789042 0.47166981742474184 0.0 0.7684277098865337 0.12094467380692732 0.0 1.2612470506049096 -0.4733509836050857 0.0 0.7894888555668558 -0.11483228743820119 0.0 1.2755690273337823 0.41787209722773505 0.0 1.2538920114696248 0.4009890651743425 0.0 1.271772047192803 -0.41433306448079493 0.0 1.2448545499537735 -0.3811420596712451 0.0 0.5835519937929899 -0.1606685451973978 0.0 0.796478907312736 -0.33191880190776596 0.0 1.010380409639016 0.6036940611943892 0.0 0.591735745925971 0.15046742494489854 0.0 0.8125298927282341 0.33158861825263364 0.0 0.7461983833975289 0.08131809014315083 0.0 0.7829232352619051 -0.07321842224517153 0.0 0.05313073066668996 -0.02178806010819632 0.0 1.3632291104163559 0.20752022186102614 0.0 0.9298875794035077 -0.32227738024460606 0.0 1.3445442730581347 -0.18991103978756108 0.0 0.4124771920236867 0.09235222185846576 0.0 0.4286793876450505 -0.07912238680809684 0.0 -0.05506597272691536 -0.007931087669250655 0.0 1.0572863235495256 0.3539064270646669 0.0 0.9431144686304553 0.39137511895035126 0.0 0.9219235187770467 0.11272191988907033 0.0 0.824489827367713 -0.08648854593308292 0.0 1.3069812557326934 0.016369432313482174 0.0 1.0275988857254246 -0.3452276997523434 0.0 1.074587207179152 -0.5704049498967178 0.0 0.9301987683312415 -0.3894725551945607 0.0 0.9975478720404014 -0.4387219274170439 0.0 0.9330093770331916 -0.5429271170477075 0.0 0.8655881339026255 -0.4065961141836639 0.0 1.2734359979705052 0.23294066697033808 0.0 1.271377714824498 -0.21931248424473895 0.0 0.852689510519157 -0.2356994558643857 0.0 0.8790990397326465 -0.3100276495245948 0.0 0.8529381526402716 -0.29913116873754936 0.0 0.8514569160969573 -0.25645218316662766 0.0 0.8542522718892843 -0.2528400879433824 0.0 0.8963285283402578 -0.31953072504090896 0.0 1.3289838747906186 0.3154643173481159 0.0 1.0849322873471705 -0.0027550325833786923 0.0 1.314436048947573 0.3622123122705751 0.0 1.3215610443946402 -0.2959392774208472 0.0 0.0 0.0 0.0 0.0 0.0 0.0 1.299637614584747 -0.34943636105664044 0.0 0.7142757005630624 -0.26743874319919536 0.0 0.8204190686015372 -0.2108611886344366 0.0 0.871184647122781 -0.1108331304659023 0.0 0.8624608173383451 -0.16384657833904995 0.0 0.9375 0.0 0.0 0.7500000000000001 0.0 0.0 0.7224534554836004 0.26518381529357926 0.0 0.8240192806471375 0.2000450636623207 0.0 0.7499999999999999 0.0 0.0 0.8697057920249014 0.12773398199004649 0.0 0.9287084385376768 0.042778000678325705 0.0 0.8481107551117852 0.04497633033775203 0.0 -0.035412665034198744 -0.011305447194851109 0.0 0.09317130252943934 -0.017104232795635062 0.0 1.1149679716116645 0.5546722069037092 0.0 1.0189626710280308 0.4730477993785399 0.0 0.8809460481232652 0.24539466763778514 0.0 1.1999272744789675 0.13927435341930675 0.0 1.328917473905873 0.05975111562174942 0.0 0.3570266707576261 0.038494074539263255 0.0 1.356135678330925 0.10293888817541745 0.0 0.7152482880684168 0.05422839201441879 0.0 1.1711762669641428 0.1004451415882694 0.0 0.5173956773722996 0.015803316747422406 0.0 0.4992407834291328 0.03027242552790565 0.0 0.07210225970561197 0.01247761506065141 0.0 0.9572117709480583 0.034581050691421075 0.0 0.2608770363574054 0.02183133944019346 0.0 0.165787377167894 0.0074640707688528474 0.0 0.27097890717504675 0.01403886938658457 0.0 0.6683804913440184 -0.005216072511412219 0.0 0.5008962664685795 0.006683336272248308 0.0 1.3157633740945227 0.01909913177682987 0.0 0.5422439014034606 0.06226600169586406 0.0 1.2303799441705847 -0.14199378240175417 0.0 0.20515429007128502 -0.03755266476004206 0.0 1.2056365487611378 0.17355710008813965 0.0 0.8828078669681405 0.17966945240730026 0.0 0.7011632807451367 -0.1679781590922162 0.0 1.115535934782529 -0.09417872867254291 0.0 1.0386118436153156 -0.2237329852695254 0.0 0.8637741124087703 -0.1827171215018528 0.0 0.8754240632454966 -0.02567740956202797 0.0 0.44199455505547225 -0.04843325904700013 0.0 0.2935260410245839 -0.03306157809374619 0.0 1.3289311829886936 -0.04207826670704689 0.0 0.21075261733746542 -0.013421105691241223 0.0 1.3554270962391226 -0.08644136126087076 0.0 0.19393305719810486 -0.018821411042800863 0.0 0.5372825970003011 -0.015867173429072276 0.0 -0.000873570367802293 -0.011084536704217222 0.0 0.5738543513258946 -0.03169099923881215 0.0 0.8788616128409519 0.29706590055019727 0.0 0.8795234442429792 0.4106696311313255 0.0 0.8850524613979788 0.2702601671611697 0.0 0.9122116431396547 0.10978519876117018 0.0 0.8651523472270762 0.22322681456435273 0.0 0.9046914549869034 0.30363584911142577 0.0 0.8572046951646178 0.23345342465352115 0.0 0.8019958453102253 0.18332606013817349 0.0 0.867038210052355 0.16147348548249318 0.0 0.0 0.0 0.0 0.8414981290280081 0.17663710340859495 0.0 0.8706416596971348 0.1709425632571809 0.0 1.2130377592633306 0.0497533807903586 0.0 1.2377131128276282 0.06497194095504276 0.0 0.8911524074073479 0.013102137450669932 0.0 0.5952885503396954 -0.02681927851225895 0.0 1.2797635672618024 0.1471857891153329 0.0 0.7176486788421544 -0.17375927871707095 0.0 1.178008173905077 -0.16448782622542307 0.0 0.9989457430312698 -0.01994016772537724 0.0 1.3236337558933253 -0.007980457266535462 0.0 0.5868968251645653 -0.00039924534037845367 0.0 1.2205346785506592 -0.012789005611099141 0.0 0.9837957398702055 0.008905967568237963 0.0 -0.003286344207197306 -0.007724672650400246 0.0 -0.09648514598474775 0.00034529490599817585 0.0 0.9448115166160194 0.3411416612943024 0.0 0.8786541535630372 -0.018863768532541604 0.0 0.42954628072722667 -0.0090797628524732 0.0 0.0 0.0 0.0 1.3285515480138894 0.03739856163088672 0.0 1.212766091246974 0.02478062044127309 0.0 1.317161552145056 0.11465175684494644 0.0 1.2520449169669532 -0.04408801252231313 0.0 0.41569036337730153 -0.013882955498541433 0.0 1.228448665448724 0.010196204872523982 0.0 1.2917713450040003 0.05681053029826017 0.0 0.04237093769362895 -0.010021903189849043 0.0 -0.08297632539759642 -0.005359501880408498 0.0 -0.06747198946144219 -0.007845531065258291 0.0 -0.08199071704823122 0.0024995568579513567 0.0 1.1856478794849103 0.2197024414414549 0.0 0.7774008337506644 0.1984174380084234 0.0 0.7778941991874572 0.15417925912658273 0.0 0.7857270802279397 0.10686750976954279 0.0 0.6205508733606024 0.11094345546094786 0.0 0.3555125260492785 0.000642335486363419 0.0 0.09488836188415639 0.0023968015963239915 0.0 0.3656975893588158 -0.021857123625470862 0.0 1.071847618499201 0.07673121571198128 0.0 0.0 0.0 0.0 0.5214708942783522 0.010965461183508959 0.0 0.9324078140465798 0.028754232281556085 0.0 -0.10903752170434546 -0.0007498633263239633 0.0 1.09688980683807 0.26695122941695676 0.0 0.9003247986088392 0.11234202811255113 0.0 1.2796921138454962 -0.049613602982169866 0.0 0.18875673311482696 -0.004088253398696434 0.0 0.360952226573823 0.016998979170891253 0.0 0.14504892124921664 -0.0006398422254759171 0.0 1.3033110897495395 0.03902713469376869 0.0 -0.1061119129629772 -0.0025008050594203337 0.0 -0.07705126498967885 -0.007264940498257892 0.0 -0.09709009087556357 -0.005734556525828992 0.0 -0.04278293539728668 0.005691095248860917 0.0 -0.09470355828782555 -0.0007453436119724286 0.0 -0.1152194255900904 -0.0015301955189446067 0.0 -0.0654457196428785 -0.003443234099066811 0.0 -0.04050832264378832 0.0017228462061416464 0.0 -0.11877359886820377 -0.003607511693928519 0.0 0.07627225596781546 -0.003742455432782559 0.0 -0.0379768700290103 0.004144359116229795 0.0 -0.12191554058907351 -0.0026749712614489974 0.0 -0.12076514452181665 -0.0024558052033647414 0.0 -0.02292778782566432 -0.0042072263996253455 0.0 0.0 0.0 0.0 0.9463334973880528 0.2553839080208058 0.0 0.9513513470829575 0.040072003706066665 0.0 0.22640721858203278 -0.0058368670924806776 0.0 0.31076346119064435 -0.004722002928659218 0.0 0.5459222260093572 0.020318897695812136 0.0 0.9131408282598148 0.042488288050735804 0.0 1.1923465369835227 0.034200597046642536 0.0 1.3535409977254038 0.014481781075973197 0.0 0.0900318607606967 0.0011368351209961008 0.0 -0.03504965550457786 -0.0017541755174672832 0.0 0.023170099455159267 -0.012216969078347828 0.0 0.1361502357262028 -0.010398027948772743 0.0 0.12597145770994356 -0.01509360240880102 0.0 0.3158145169641064 -0.024508068059303396 0.0 0.5743277223903118 -0.05100140794633467 0.0 0.8591757509468614 -0.05285178767448113 0.0 0.3665465945565014 -0.03256788433331014 0.0 0.5554623565492158 -0.03677641599950296 0.0 0.6501315928437672 -0.048322234842615656 0.0 0.7704752968585314 -0.041798018348847485 0.0 0.2588136347035081 -0.02862614914275095 0.0 1.271904428473591 -0.0644254427059382 0.0 1.0581691193377951 -0.052163927684484884 0.0 1.2861887677514927 -0.029402080836043624 0.0 1.0489731661977013 -0.04021646980266991 0.0 -0.04203029523576408 -0.008632712461623369 0.0 1.0260930669914292 -0.06686336691066118 0.0 1.0603423232352676 -0.030586470285814554 0.0 1.2299734841110226 -0.10524421283073093 0.0 -0.10734277861997875 -0.0014296383908413027 0.0 0.4593842341032149 -0.045395698334859416 0.0 1.2518046252418353 -0.10356101776810717 0.0 0.13154851017442484 -0.02156485097961056 0.0 -0.12062559070031773 -0.001536011213745914 0.0 1.2604176777386613 -0.08605061433938613 0.0 0.0634989335310609 -0.018915758852793185 0.0 -0.11020499949705456 -0.002597322171225195 0.0 -0.024108142020996277 0.010342398300006085 0.0 0.046031364798863744 -0.01653844728759184 0.0 -0.06658575925176748 -0.006334197088571098 0.0 0.41730398331283064 -0.04747265622353655 0.0 -0.04653042808801131 -0.008020169117150214 0.0 0.11379348687831937 0.035308234471682035 0.0 -0.08044540164930804 0.006652317661802985 0.0 -0.07138215972614785 -0.002501121107235226 0.0 -0.09781094548994275 0.0031344100919890447 0.0 0.04187861666137751 0.018374188914255553 0.0 1.212724902580006 0.0996795982566603 0.0 0.3305963787492369 0.03770737704308181 0.0 0.3039578037290749 -0.0414536372253981 0.0 0.25691431379925267 -0.011675946480940851 0.0 0.7092531069112412 -0.021316898870267487 0.0 0.3082175846093766 0.004992864776922693 0.0 1.1771687540903146 0.052683129964763334 0.0 0.8903240303434473 0.06067438382759803 0.0 0.9272260265169734 -0.08111844897969697 0.0 -0.04655247095746741 -0.005375757652732885 0.0 -0.057998686660780625 -0.005126352939846884 0.0 -0.11785751606510105 -0.0027607344875362387 0.0 -0.043908685981364555 0.0030714620019650536 0.0 -0.07859551120175681 -0.005185297345384405 0.0 0.3250378722111363 -0.03783902539229816 0.0 1.2573758120218819 -0.09171859784784551 0.0 0.624464350174788 -0.060522459208982145 0.0 0.891604885003851 -0.08359288131531184 0.0 -0.02679164811537629 0.015760283023186543 0.0 0.06146238603728772 -0.019299634400855296 0.0 -0.00592266925005668 -0.009341632495157239 0.0 0.20864503939065343 -0.034097136579001715 0.0 -0.015179917077908384 -0.009818373108710806 0.0 1.2522917423429658 0.10725790679326806 0.0 -0.06511508044429651 0.004233249150945648 0.0 -0.013648891423718206 0.017111255909829867 0.0 -0.04974250512255033 0.006179649868642085 0.0 0.05681241629977663 -0.015555903453381727 0.0 0.3396189049482898 0.02372844909925983 0.0 0.686098778635799 -0.06821161612828333 0.0 0.5057666535908802 -0.05727129306570304 0.0 0.7853495518110295 -0.06758166029390024 0.0 0.2638686450438095 -0.036225700188544256 0.0 0.8175786910371561 -0.0843676351552152 0.0 1.164948730404436 -0.08930651327529647 0.0 1.0658121046031594 -0.08238180043373841 0.0 1.039316383947477 -0.07445583614777336 0.0 0.5903820113230295 -0.06623355537793905 0.0 0.5026567806763869 -0.06059359888168443 0.0 0.3917050967242378 -0.052632959611327725 0.0 0.3663814578360878 -0.04942587108785123 0.0 0.1454141403501799 -0.027646587184967333 0.0 0.7862451491839385 -0.08476964161594808 0.0 0.26186745903572234 0.013739888886024431 0.0 0.6085275391781122 0.03713502334359658 0.0 0.06892157887649976 0.004835510512091558 0.0 0.17393598538357097 0.017001731086249233 0.0 -0.06887386483643505 -0.0010575337508544236 0.0 1.3327590019514337 -0.024544031897517308 0.0 1.2181562620916273 0.04118485208612957 0.0 1.3548287165002237 -0.012177076296771767 0.0 1.3261880093071254 -0.06252545180771116 0.0 0.17076954797748803 -0.030238901617433492 0.0 0.35991090258571495 -0.05016868178025234 0.0 0.5611663707346077 0.04638088425421823 0.0 0.08950963035726034 0.015188018877881144 0.0 1.3083153941535506 0.003929015864962991 0.0 1.3477342435347368 -0.032960632526158065 0.0 0.5188975684039421 0.07233724083289662 0.0 1.3265852053944747 -0.07560188711156758 0.0 0.5907189453353673 0.04269644605239959 0.0 1.2832310385780743 0.07221020793427858 0.0 0.33550166411475213 0.033299055715814575 0.0 0.7066160258625247 0.06404120789126966 0.0 1.3349541252561778 0.024016423373187303 0.0 1.230956406445827 -0.024185339885640623 0.0 1.3175523338480863 -0.08529452529883828 0.0 0.8266942874679782 0.061191263405292934 0.0 1.0492931792044204 0.07934891405853052 0.0 1.108075056453225 0.07240846009147633 0.0 1.26718120782875 0.09997588561099004 0.0 1.1299347381310132 0.09894031662987451 0.0 0.9767789585390599 0.0820102962130241 0.0 0.6716918472412748 0.06836624149830084 0.0 1.2742309191503929 -0.08857581698888661 0.0 0.0 0.0 0.0 1.3083128915557483 0.05803179199120608 0.0 0.9191716815313182 0.091515386103884 0.0 0.32828030736588176 0.043249838144791844 0.0 1.3163401774012409 0.07215016945151942 0.0 0.9017496646364268 0.08685576912578108 0.0 1.2714462910569446 0.09241697065537825 0.0 0.6011632661564785 0.06801734064984373 0.0 1.261564277745504 0.10509969704154606 0.0 0.5515384475758777 0.07125541420779208 0.0 0.25853130182064993 0.042859328387667074 0.0 1.1475331610122905 0.10347759976755319 0.0 0.6641520196636594 0.0771634063609946 0.0 1.0730646695157047 0.1055395848454867 0.0 0.8465966108237482 0.09310958615662715 0.0 0.776871479847992 0.09159562585748036 0.0 1.196827241450052 0.08965351483062332 0.0 1.117617601422079 0.09311707543115554 0.0 1.3064922198557702 0.08273414704294485 0.0 0.1583746794703456 0.030647986405461444 0.0 1.1509782214105293 0.07954358528748248 0.0 1.2161071810297777 0.10818657117689297 0.0 1.1568822044433074 0.10921164474344473 0.0 1.2307876834097438 0.10654718569382607 0.0 1.241610252248956 0.10868048629986965 0.0 1.2910504213979903 0.0881022709513203 0.0 1.1830823266177197 0.06903347877612358 0.0 0.9435263801596968 0.10296958822970076 0.0 1.2274902417257723 0.09272424301239743 0.0 1.2784766291357252 0.0917231626448654 0.0 1.0442944216808099 0.0657764262533225 0.0 1.1601301639220716 0.11001334389104103 0.0 1.0757859969274652 0.10763689222462257 0.0 1.0589241785460723 0.10785891936353086 0.0 1.2301270189570366 0.09625538289353257 0.0 0.0 0.0 0.0 0.6445098081934257 -0.005714174321344972 0.0 1.0777716279657872 0.4341326346125744 0.0 1.1668247283312283 0.42213280276221293 0.0 1.0823538896794893 -0.42683804666116154 0.0 0.8656658837683735 -0.22704330812414955 0.0 0.9789723547454691 -0.2555227904921567 0.0 0.8923789153173562 -0.0850419083287273 0.0 1.222928245944147 -0.05236758007322584 0.0 1.0817483535058192 -0.06403410816262606 0.0 1.1987418591082537 -0.10446482782493345 0.0 1.2651580419605997 -0.0845909840093865 0.0 1.3152753775623243 -0.05377877283544799 0.0 -0.08442252429716186 -0.0025964380480534926 0.0 -0.050087142093932405 0.006764021113287272 0.0 0.002013940144704476 0.008897562339350667 0.0 0.0016072496798106761 0.011274949702977675 0.0 0.15048992735990244 0.026306929732861608 0.0 -0.05783293095409635 0.00783895084901733 0.0 0.06325282355244481 0.02161814437319505 0.0 0.2220992873693238 0.03730561781421415 0.0 0.08722720100066793 0.03870247925779494 0.0 -0.03675335083250706 0.015091885290003609 0.0 1.034694604652407 0.16074995042765985 0.0 -0.06820849431384228 0.00405883466820678 0.0 1.2547454592480087 -0.09850821093726427 0.0 1.141088122936574 -0.09589006858539897 0.0 0.9496992452907512 -0.08973123466858228 0.0 1.103863934162402 -0.09946275156586619 0.0 1.2423124203037343 -0.10606831314743748 0.0 0.9132329142328706 -0.09223225612093164 0.0 1.2490807759175346 -0.10532926676411695 0.0 1.079041245773178 -0.10252662391333363 0.0 1.1337376946552058 -0.10245535100724544 0.0 0.8667157977877183 -0.09249737239948683 0.0 0.9090932338408874 -0.09446452231716365 0.0 0.6289399083374252 -0.0739217066787745 0.0 1.1068517419256916 -0.10591747188248506 0.0 1.23679386661316 -0.10698513862921538 0.0 1.072753480552427 -0.10474248974836017 0.0 1.170087869767927 -0.08575732880259845 0.0 1.1964494954521236 -0.10837625898377456 0.0 0.6877178494839646 -0.07981872707770493 0.0 1.1453626180102974 -0.10671151877766735 0.0 0.9443597960415593 -0.0984166670502