<?xml version="1.0"?>
<VTKFile type="UnstructuredGrid"  version="0.1"  >
<UnstructuredGrid>
<Piece  NumberOfPoints="1289" NumberOfCells="2413">
<Points>
<DataArray  type="Float64"  NumberOfComponents="3"  format="ascii">0 0 0  0 0.41 0  2.2 0.41 0  2.2 0 0  0.1 0.1 0  0.1 0.3 0  0.8 0.3 0  0.8 0.1 0  0.25 0.2 0  0.248976 0.210065 0  0.245948 0.219718 0  0.241038 0.228563 0  0.234448 0.23624 0  0.226448 0.242432 0  0.217365 0.246888 0  0.207571 0.249423 0  0.197468 0.249936 0  0.187467 0.248404 0  0.17798 0.24489 0  0.169395 0.239539 0  0.162062 0.232569 0  0.156283 0.224265 0  0.152293 0.214968 0  0.150257 0.205058 0  0.150257 0.194942 0  0.152293 0.185032 0  0.156283 0.175735 0  0.162062 0.167431 0  0.169395 0.160461 0  0.17798 0.15511 0  0.187467 0.151596 0  0.197468 0.150064 0  0.207571 0.150577 0  0.217365 0.153112 0  0.226448 0.157568 0  0.234448 0.16376 0  0.241038 0.171437 0  0.245948 0.180282 0  0.248976 0.189935 0  1.1 0 0  1.1 0.41 0  0.1 0.2 0  0.45 0.1 0  0.45 0.3 0  0.55 0 0  0.275 0.1 0  0.275 0.3 0  0.275 0 0  0.55 0.41 0  0 0.205 0  0.825 0 0  0.825 0.41 0  0.275 0.41 0  0.1 0.15 0  0.1875 0.1 0  0.1 0.25 0  0.1875 0.3 0  0.132322 0.2 0  0.241426 0.253518 0  0.241426 0.146482 0  0.264574 0.17974 0  0.264574 0.22026 0  0.138434 0.187348 0  0.153372 0.150948 0  0.148413 0.164094 0  0.176495 0.136535 0  0.22768 0.143571 0  0.138434 0.212652 0  0.148413 0.235906 0  0.176495 0.263465 0  0.22768 0.256429 0  0.23125 0.3 0  0.24769 0.24094 0  0.23125 0.1 0  0.24769 0.15906 0  0.26253 0.193641 0  0.190482 0.137872 0  0.166753 0.146661 0  0.157737 0.244461 0  0.190482 0.262128 0  0.203107 0.261264 0  0.253635 0.22977 0  0.203107 0.138736 0  0.253635 0.17023 0  0.261028 0.206206 0  0.167707 0.251809 0  0.143629 0.224191 0  0.215302 0.2591 0  0.270465 0.245894 0  0.215302 0.1409 0  0.270465 0.154106 0  0.284052 0.202587 0  0.14375 0.3 0  0.209375 0.3 0  0.225966 0.278501 0  0.209375 0.1 0  0.225966 0.121499 0  0.211613 0.273759 0  0.211613 0.126241 0  0.143629 0.175809 0  0.1 0.175 0  0.133484 0.164832 0  0.144491 0.249539 0  0.1 0.225 0  0.133484 0.235168 0  0.3625 0.3 0  0.25691 0.253381 0  0.25691 0.146619 0  0.277205 0.188698 0  0.184724 0.275712 0  0.237372 0.268285 0  0.184724 0.124288 0  0.237372 0.131715 0  0.197578 0.273149 0  0.193656 0.286994 0  0.197578 0.126851 0  0.193656 0.113006 0  0.122953 0.187671 0  0.118362 0.153758 0  0.155372 0.258107 0  0.122953 0.212329 0  0.118362 0.246242 0  0.276394 0.27264 0  0.276394 0.12736 0  0.280965 0.170013 0  0.253125 0.3 0  0.14375 0.1 0  0.253125 0.1 0  0.269489 0.26014 0  0.269489 0.13986 0  0.303639 0.184297 0  0.165625 0.3 0  0.134742 0.273113 0  0.257831 0.274737 0  0.255279 0.128499 0  0.3625 0.1 0  0.165625 0.1 0  0.162031 0.132368 0  0.134955 0.126405 0  0.149334 0.125568 0  0.142936 0.139597 0  0.12695 0.140259 0  0.242514 0.285501 0  0.242514 0.114499 0  0.1 0.125 0  0.117483 0.12555 0  0.11154 0.139776 0  0.121875 0.1 0  0.109143 0.1125 0  0.126805 0.114 0  0.220313 0.29129 0  0.351562 0.287369 0  0.207222 0.2866 0  0.220312 0.10871 0  0.1375 0 0  0.20625 0 0  0.207222 0.1134 0  0.11722 0.17118 0  0.1 0.1625 0  0.0778409 0.16875 0  0.0862762 0.15625 0  0 0.15375 0  0 0.1025 0  0.11722 0.22882 0  0.1 0.2375 0  0 0.3075 0  0.0862762 0.23125 0  0.0598995 0.222547 0  0.0860223 0.2125 0  0.289584 0.181469 0  0.300267 0.16446 0  0.163832 0.269071 0  0.149597 0.273325 0  0.1 0.275 0  0.268498 0.285953 0  0.31875 0.3 0  0.294154 0.254672 0  0.296875 0.3 0  0.293558 0.271845 0  0.285095 0.286799 0  0.324298 0.264316 0  0.307866 0.263745 0  0.317093 0.234901 0  0.315485 0.281219 0  0.316547 0.250625 0  0.344693 0.243731 0  0.331592 0.251147 0  0.35129 0.270663 0  0.338689 0.263683 0  0.340625 0.3 0  0.249849 0.264383 0  0.265097 0.11422 0  0.284688 0.156136 0  0.242188 0.324017 0  0.0856613 0.2625 0  0.132812 0.0612217 0  0.264062 0.0612217 0  0.198437 0.07598340000000001 0  0.0860223 0.1375 0  0.0794526 0.191089 0  0.285228 0.140397 0  0.298655 0.148737 0  0.31875 0.1 0  0.327335 0.15374 0  0.296875 0.1 0  0.312289 0.155283 0  0.313348 0.135607 0  0.321802 0.173916 0  0.298433 0.134116 0  0.112124 0.2625 0  0.127526 0.259083 0  0.121875 0.3 0  0.0682687 0.241503 0  0.1 0.2875 0  0.117762 0.28125 0  0.107813 0.3 0  0.103906 0.313849 0  0.0778409 0.28125 0  0.1375 0.41 0  0.0862762 0.29375 0  0.08886860000000001 0.24375 0  0.307812 0.338778 0  0.307812 0.292227 0  0.33216 0.279164 0  0.387888 0.266414 0  0.264063 0.31948 0  0.110937 0.07598340000000001 0  0.242188 0.07598340000000001 0  0.319914 0.11839 0  0.340625 0.1 0  0.334448 0.133793 0  0.329687 0.108539 0  0.346259 0.118491 0  0.360334 0.173636 0  0.327539 0.205033 0  0.132812 0.288712 0  0.362436 0.278836 0  0.368105 0.259418 0  0.4125 0.41 0  0.329687 0.324017 0  0.329687 0.292306 0  0.285938 0.318952 0  0.417187 0.338778 0  0.324481 0.14148 0  0.351562 0.106771 0  0.40625 0.1 0  0.341028 0.168342 0  0.319221 0.190479 0  0.335292 0.184501 0  0.305563 0.20794 0  0.220313 0.31948 0  0.132812 0.332772 0  0.0865876 0.311259 0  0.0598995 0.302453 0  0.0906541 0.343255 0  0.353543 0.255837 0  0.36574 0.237633 0  0.405007 0.254279 0  0.275795 0.352123 0  0.4125 0 0  0.35493 0.137394 0  0.366563 0.120618 0  0.35917 0.205246 0  0.198438 0.318952 0  0.0626109 0.263892 0  0.40625 0.3 0  0.354809 0.155936 0  0.386512 0.146872 0  0.373101 0.159939 0  0.384375 0.1 0  0.343394 0.19929 0  0.350682 0.185683 0  0.368101 0.189748 0  0.344016 0.221511 0  0.391108 0.213329 0  0.376279 0.204783 0  0.398843 0.182768 0  0.375804 0.222746 0  0.390665 0.196958 0  0.394004 0.23518 0  0.359883 0.222828 0  0.419908 0.204359 0  0.404243 0.204783 0  0.412615 0.224526 0  0.20625 0.41 0  0.165625 0.325257 0  0.0347982 0.244954 0  0.379558 0.247154 0  0.34165 0.147603 0  0.372264 0.136992 0  0.388988 0.121989 0  0.373437 0.108554 0  0.351562 0.31948 0  0.391367 0.16527 0  0.399572 0.223324 0  0.452011 0.227371 0  0.40877 0.239392 0  0.431491 0.237337 0  0.421224 0.250459 0  0.449619 0.262098 0  0.418865 0.276779 0  0.437063 0.252274 0  0.415673 0.263227 0  0.430988 0.266772 0  0.402767 0.273419 0  0.452967 0.244883 0  0.428125 0.3 0  0.408502 0.286186 0  0.384375 0.3 0  0.392267 0.285807 0  0.465927 0.219339 0  0.43489 0.283846 0  0.376424 0.286289 0  0.625 0.3 0  0.473533 0.205186 0  0.461713 0.255517 0  0.5375 0.3 0  0.465725 0.235405 0  0.44631 0.201425 0  0.471875 0.3 0  0.494307 0.227729 0  0.459448 0.206736 0  0.462294 0.180792 0  0.478933 0.227536 0  0.486793 0.21381 0  0.486322 0.251373 0  0.50065 0.215318 0  0.54005 0.175389 0  0.474633 0.189893 0  0.512916 0.208697 0  0.49531 0.199967 0  0.475889 0.175275 0  0.625 0.1 0  0.459311 0.153933 0  0.513645 0.242704 0  0.392892 0.248539 0  0.374815 0.271913 0  0.365974 0.14871 0  0.395312 0.109184 0  0.417061 0.123981 0  0.483196 0.277003 0  0.381967 0.179632 0  0.429898 0.219374 0  0.433473 0.206165 0  0.43149 0.181038 0  0.444208 0.215487 0  0.472985 0.247309 0  0.49375 0.3 0  0.475579 0.262714 0  0.49916 0.274293 0  0.501175 0.184809 0  0.514164 0.225681 0  0.543648 0.214977 0  0.5341630000000001 0.23481 0  0.527396 0.216171 0  0.5375 0.1 0  0.534548 0.202315 0  0.561545 0.192513 0  0.5494289999999999 0.201221 0  0.570923 0.218346 0  0.412582 0.149833 0  0.489327 0.264745 0  0.502439 0.254775 0  0.462391 0.271166 0  0.496775 0.241732 0  0.5294410000000001 0.268606 0  0.482812 0.291099 0  0.46879 0.285038 0  0.452663 0.284065 0  0.51789 0.257882 0  0.53408 0.252026 0  0.560142 0.243543 0  0.545708 0.243474 0  0.547532 0.229019 0  0.55282 0.265323 0  0.398971 0.153424 0  0.400349 0.135684 0  0.410135 0.168145 0  0.428823 0.161323 0  0.415266 0.183779 0  0.329687 0.0810483 0  0.395312 0.0612217 0  0.373437 0.318952 0  0.439062 0.324017 0  0.561816 0.229354 0  0.585029 0.239287 0  0.431827 0.139854 0  0.446796 0.168929 0  0.351562 0.07598340000000001 0  0.395313 0.318944 0  0.54337 0.150762 0  0.460937 0.31948 0  0.418412 0.137529 0  0.428125 0.1 0  0.442783 0.152332 0  0.450742 0.134294 0  0.373437 0.0805201 0  0.384383 0.342558 0  0.482812 0.318952 0  0.429239 0.127457 0  0.444274 0.117405 0  0.426548 0.113815 0  0.49375 0.1 0  0.488954 0.113984 0  0.457973 0.121842 0  0.471621 0.137346 0  0.515625 0.325257 0  0.48125 0.41 0  0.417187 0.07598340000000001 0  0.496363 0.126778 0  0.479043 0.155715 0  0.439062 0.0805201 0  0.481795 0.126919 0  0.471875 0.1 0  0.489227 0.142159 0  0.515625 0.1 0  0.520062 0.147117 0  0.501244 0.161791 0  0.505431 0.112984 0  0.505344 0.14029 0  0.526563 0.119081 0  0.5181750000000001 0.131908 0  0.539868 0.136937 0  0.460937 0.108383 0  0.474242 0.114415 0  0.460937 0.0810483 0  0.487841 0.167168 0  0.526563 0.0612217 0  0.526563 0.106406 0  0.537619 0.112743 0  0.58125 0.1 0  0.559375 0.1 0  0.482812 0.08105569999999999 0  0.471883 0.0587655 0  0.570312 0.129396 0  0.548437 0.07598340000000001 0  0.504687 0.08105569999999999 0  0.49375 0.0470127 0  0.570312 0.112663 0  0.592798 0.12103 0  0.553986 0.12103 0  0.570312 0.0805201 0  0.48125 0 0  0.114787 0.2 0  0.160769 0.284765 0  0.175816 0.288361 0  0.162602 0.116048 0  0.154687 0.07598340000000001 0  0.176562 0.0805201 0  0.0598995 0.147547 0  0.307812 0.109924 0  0.291279 0.117157 0  0.278491 0.112989 0  0.285937 0.07598340000000001 0  0.307812 0.0805201 0  0.296928 0.196743 0  0.318141 0.218507 0  0.330208 0.227509 0  0.301397 0.225668 0  0.302706 0.241401 0  0.292574 0.21424 0  0.282762 0.230935 0  0.284351 0.244775 0  0.269553 0.23261 0  0.278572 0.217242 0  0.226924 0.342606 0  0.446928 0.185396 0  0.515625 0.3 0  0.504687 0.288879 0  0.515256 0.276534 0  0.529479 0.285328 0  0.58125 0.3 0  0.541969 0.272936 0  0.559375 0.3 0  0.556796 0.282529 0  0.543473 0.287206 0  0.581429 0.267774 0  0.566728 0.271171 0  0.570869 0.255585 0  0.577404 0.283865 0  0.603125 0.3 0  0.597531 0.28035 0  0.570312 0.338778 0  0.592188 0.292492 0  0.603513 0.256094 0  0.614063 0.286265 0  0.610329 0.27064 0  0.632708 0.251285 0  0.657223 0.261594 0  0.618789 0.257807 0  0.614188 0.22987 0  0.630935 0.265614 
[...]
<PointData  Vectors="v"> 
	<DataArray  type="Float64"  Name="v"  NumberOfComponents="3" format="ascii">
0.0 0.0 0.0 0.0 0.0 0.0 0.0 0.0 0.0 0.0 0.0 0.0 0.7962240101974857 -0.19595673947394873 0.0 0.8404173397839596 0.20777223566132855 0.0 1.1726871000966297 -0.06197374442146895 0.0 1.1335455325972357 0.05142935672658779 0.0 0.0 0.0 0.0 0.0 0.0 0.0 0.0 0.0 0.0 0.0 0.0 0.0 0.0008142101043096509 0.0007091117701620023 0.0 -0.0021782712302600244 -0.003911006925415819 0.0 -0.00024072341466645173 -0.0004049457813115181 0.0 0.0 0.0 0.0 0.0 0.0 0.0 0.0 0.0 0.0 0.0 0.0 0.0 0.0 0.0 0.0 0.0 0.0 0.0 0.0 0.0 0.0 0.0 0.0 0.0 0.0 0.0 0.0 0.0 0.0 0.0 0.0 0.0 0.0 0.0 0.0 0.0 0.0 0.0 0.0 0.0 0.0 0.0 0.0 0.0 0.0 0.0 0.0 0.0 0.0 0.0 0.0 0.0 0.0 0.0 0.0012902960567423853 -0.0022371176408690135 0.0 0.0030987185755733107 -0.005231106907753738 0.0 0.0009153423095139102 -0.0009031362787327648 0.0 0.0 0.0 0.0 0.0 0.0 0.0 0.0 0.0 0.0 0.0 0.0 0.0 0.0 0.0 0.0 0.7613337015826342 -0.0012535908428190478 0.0 1.2744687924234246 0.08208110015029015 0.0 1.2673246894162185 -0.07798772721717458 0.0 0.0 0.0 0.0 1.353689076558803 -0.13306783148230697 0.0 1.3579443264705733 0.1549205874078866 0.0 0.0 0.0 0.0 0.0 0.0 0.0 1.0 0.0 0.0 0.0 0.0 0.0 0.0 0.0 0.0 0.0 0.0 0.0 0.8425918892030148 -0.23185649478286405 0.0 1.1513482518669005 -0.34426060185174673 0.0 0.8637957166890973 0.22932608691717418 0.0 1.166329265571247 0.35404195675346245 0.0 0.428241432090034 -0.003930496706547526 0.0 0.1637624166608543 0.0612920859406376 0.0 0.17193617401563693 -0.06160461401735399 0.0 -0.028244744770968833 -0.038919213585188926 0.0 -0.026936751338744933 0.037403897918135295 0.0 0.33437606220504595 -0.2798023275547733 0.0 0.8578899123371267 -0.6734243020756424 0.0 0.6399882584113767 -0.6881206553252759 0.0 1.206162349272289 -0.6132521077016412 0.0 0.4141164398523141 -0.07003917727863487 0.0 0.3304598750347368 0.2687934831369759 0.0 0.6428657692514105 0.6693701121145176 0.0 1.1852304213044216 0.6154003787449546 0.0 0.40977234061477563 0.0701037219090952 0.0 1.3131763917855435 0.26065302997724527 0.0 0.33355707759888514 0.26013758223750594 0.0 1.30253093552945 -0.24059408565085957 0.0 0.3220838115064467 -0.2440290210532628 0.0 -0.034336352751752265 -0.01716878631619321 0.0 1.125022428110161 -0.3987274646501633 0.0 1.0932167949435836 -0.7243186168278539 0.0 0.8521100041650034 0.7707912589620046 0.0 1.1315156620547633 0.3995833571150559 0.0 0.7595609513032455 0.1860990346707249 0.0 0.11031305841900152 0.05306825528408084 0.0 0.7695732981526578 -0.1817774879359286 0.0 0.11281776036368475 -0.05084520267123315 0.0 -0.030403280930215354 0.01983218367669777 0.0 1.0275830097312322 0.7189253310400706 0.0 0.44240707822653924 0.5292458340592848 0.0 0.45895810151322664 0.17843534830173505 0.0 0.2791727505961224 0.07050110884659609 0.0 0.4634528620224224 -0.17262586589529905 0.0 0.28336200385067695 -0.06569010622576994 0.0 -0.07673129480423858 0.002715596785303321 0.0 0.9655061453145184 0.3174083046657143 0.0 1.2606049485549782 0.31308852148174554 0.0 1.2454796685742155 0.2886423684075896 0.0 1.2347328934698525 -0.30757956905337436 0.0 1.247605380220572 -0.28092722963330297 0.0 1.2205040447100928 0.33100718542850593 0.0 1.2260997982399227 -0.3224595729396182 0.0 0.4428793996373886 -0.5445332763638994 0.0 0.8020163861643336 -0.13959558937202193 0.0 0.6715050524117786 -0.4196549109003209 0.0 0.8774103533896611 0.5938801233622579 0.0 0.7993165233880426 0.14283460044380628 0.0 0.6765184432831247 0.4201931102926119 0.0 1.2928751394133935 -0.006819978630200648 0.0 0.296959374905697 0.14767705051340013 0.0 0.2978371992884167 -0.13671832972102693 0.0 -0.05558604778828916 -0.012680833705069018 0.0 1.2651614889424303 0.4718010094844951 0.0 0.768915433079363 0.12008498167498091 0.0 1.2611227147354835 -0.47319262081255176 0.0 0.7888278063203764 -0.11569409026525584 0.0 1.2757785108684059 0.41806356169520525 0.0 1.2540949472904874 0.40108201335672505 0.0 1.2715774687404766 -0.41409212933936873 0.0 1.2446408021601254 -0.38101516502659966 0.0 0.5835276906610544 -0.1604843752233366 0.0 0.796429572176631 -0.33176957442152233 0.0 1.0104894423694317 0.6038276103576253 0.0 0.5917626148616306 0.15065175040130993 0.0 0.8125826408020745 0.33173592327226736 0.0 0.7460956958326043 0.081235769704477 0.0 0.7832474031666885 -0.07334804215085405 0.0 0.053643837800281806 -0.021670209321250918 0.0 1.363293973081611 0.2073411254986992 0.0 0.9298021762149183 -0.32217904928458274 0.0 1.3444438680979554 -0.19010738982900455 0.0 0.41226155984438523 0.09250762115824498 0.0 0.42957236172036983 -0.07938637420832986 0.0 -0.05520344093178106 -0.007300758623461998 0.0 1.0573999324615153 0.3539832725496298 0.0 0.9431926810678488 0.3914911281693338 0.0 0.9223963237831094 0.11226411208512953 0.0 0.8239576389527914 -0.0870206274937064 0.0 1.3067439521041584 0.017069364474575816 0.0 1.0274787810054018 -0.3451365027770168 0.0 1.0744878038719998 -0.5702752665668869 0.0 0.9301219918469366 -0.3893499183468349 0.0 0.9974556503710039 -0.4385995934366437 0.0 0.9329224461254326 -0.5427844239774864 0.0 0.8655239642120907 -0.40645708806548403 0.0 1.2732165874534314 0.2326521865971464 0.0 1.27159784539285 -0.2196568048015611 0.0 0.8526489981820565 -0.235598627453926 0.0 0.8790405909126958 -0.3099141285919775 0.0 0.8528886838816004 -0.29900795256771856 0.0 0.8513928214974927 -0.25636379145406024 0.0 0.8542010599277897 -0.2527449631081344 0.0 0.8962604384840972 -0.3194245151576693 0.0 1.329320464407624 0.3154151570582087 0.0 1.0847811634714557 -0.001996932143120367 0.0 1.3147142988911622 0.3622543638149131 0.0 1.3211609469221877 -0.29595579119657056 0.0 0.0 0.0 0.0 0.0 0.0 0.0 1.2993350991608015 -0.34935472848804183 0.0 0.7142412842737269 -0.2672755284196286 0.0 0.8203883531168277 -0.21072978078142315 0.0 0.8711708408485028 -0.11072844169354541 0.0 0.8624390007128706 -0.16373813288327915 0.0 0.9375 0.0 0.0 0.7500000000000001 0.0 0.0 0.7224903091993166 0.2653458107290642 0.0 0.8240516409178743 0.20017572770684974 0.0 0.7499999999999999 0.0 0.0 0.8697261203506355 0.12785026755512485 0.0 0.9287165390739788 0.04285212782322981 0.0 0.8481169394350384 0.04509781473561235 0.0 -0.03540377200460083 -0.010933771239715243 0.0 0.09357988071179595 -0.016800277894546235 0.0 1.1150814356598173 0.5547949581261722 0.0 1.019061853756409 0.473165048840625 0.0 0.880987160318573 0.24549347451954168 0.0 1.1999736294566108 0.139130769516486 0.0 1.3287874096271624 0.06010997392062465 0.0 0.3576156539767801 0.038488517804541475 0.0 1.3560354845906533 0.10308086627397198 0.0 0.7153773774936267 0.05425607103447849 0.0 1.1711810590968763 0.10043940992027026 0.0 0.5176372063174022 0.016204502545661557 0.0 0.499461091863811 0.030366887356424923 0.0 0.07262524129920607 0.01299878424819189 0.0 0.9570286989864499 0.034829864029793114 0.0 0.26141034204070723 0.022150168190156423 0.0 0.1668114971481054 0.008626097026962262 0.0 0.2717111781826457 0.0146648855500053 0.0 0.668499659788415 -0.004288703504939217 0.0 0.5012116727423818 0.007399472428596435 0.0 1.3157497657695931 0.019641556276923225 0.0 0.5422734901019872 0.06142298000874967 0.0 1.2300646527878438 -0.14229670383798618 0.0 0.20612229502436297 -0.03763260701953172 0.0 1.2057027396633924 0.17352022563730674 0.0 0.8828346528116091 0.17976293235700608 0.0 0.7010947030658434 -0.16792666496964664 0.0 1.115508002652103 -0.09424135659922939 0.0 1.0384714699911544 -0.22370982277853785 0.0 0.8637468325849283 -0.18262282770341948 0.0 0.875421872418716 -0.02556625926004897 0.0 0.4426199518745177 -0.048805667041468555 0.0 0.2943616341598299 -0.033047986930835896 0.0 1.3291204798733964 -0.04166624584460492 0.0 0.21092690861359625 -0.012743312257491554 0.0 1.355546136373084 -0.08631320040353693 0.0 0.19434408158905564 -0.018473449356588515 0.0 0.5378961588677379 -0.015727202593322474 0.0 -0.001061813658246698 -0.010137830760490716 0.0 0.5742269672131449 -0.03184765281745035 0.0 0.8789138828356782 0.29718395157174154 0.0 0.879591531167102 0.41080619987635497 0.0 0.8851129656383243 0.27034540598065454 0.0 0.9122256369916251 0.10986918400547206 0.0 0.8651929793165436 0.2233108599408255 0.0 0.9047510107872039 0.3037397436905153 0.0 0.8572525757429615 0.23353369722260287 0.0 0.8020379983913739 0.1833894851808336 0.0 0.8670637310671228 0.16154511232522464 0.0 0.0 0.0 0.0 0.8415277530150359 0.1767073984421892 0.0 0.8706671178437079 0.1710522162449176 0.0 1.2130738852014205 0.04988453757893016 0.0 1.237567868069133 0.06520656070613184 0.0 0.8909819656256667 0.013588371818725634 0.0 0.596498532894744 -0.02522477755239562 0.0 1.2797102474718147 0.14710435650834364 0.0 0.7176013930865744 -0.1736955431907502 0.0 1.1779093886353196 -0.16452867186724032 0.0 0.9992424376646656 -0.019675693144597273 0.0 1.3236576680581746 -0.007363664469399343 0.0 0.5874720387884664 0.00023472858483932494 0.0 1.2207350602225817 -0.012303648484195082 0.0 0.9842259651887955 0.009660443560418907 0.0 -0.004062037094866156 -0.005532338556510907 0.0 -0.09648181208116877 0.0015617467186049199 0.0 0.944887698319013 0.3412411053085131 0.0 0.8786894086617958 -0.017882896372231036 0.0 0.43057037457329594 -0.007560216179471155 0.0 0.0 0.0 0.0 1.3286555254736157 0.03770549920882473 0.0 1.2126098032401873 0.02528170524745726 0.0 1.3170943605608278 0.1147088400960186 0.0 1.2527404981540906 -0.044500763992007544 0.0 0.41619843610858787 -0.01349645401533406 0.0 1.2285213313333676 0.01097111306920301 0.0 1.2905504210132297 0.057028104444079214 0.0 0.041914524253322386 -0.008581588451635232 0.0 -0.08321139476670499 -0.004366844352436903 0.0 -0.06781484179125469 -0.006410160603506468 0.0 -0.08212129391487966 0.003139398266100528 0.0 1.1857705251021975 0.21961427175996576 0.0 0.7774591863856477 0.19847126081438862 0.0 0.7779209409637307 0.15423691536923864 0.0 0.785741093367355 0.10691187349458912 0.0 0.6205772723159191 0.11098247690723148 0.0 0.3564059803045836 0.0018424877141570873 0.0 0.09633755085564727 0.004404507191295312 0.0 0.368185407881531 -0.019765414086700482 0.0 1.071900044507357 0.07677230793968318 0.0 0.0 0.0 0.0 0.5216731659359106 0.01213867338509049 0.0 0.9326391438416328 0.029833650975732165 0.0 -0.10878588195801325 0.0015231933606124819 0.0 1.0970153840012244 0.2669622042196077 0.0 0.9003386320247175 0.1124070232914231 0.0 1.2809435461147827 -0.049393508548657164 0.0 0.18823255463910163 -0.0024718106370318405 0.0 0.3598343691938271 0.0191322554677301 0.0 0.14398287197777626 0.0016675631164943206 0.0 1.3026250769384258 0.03962343776403555 0.0 -0.10617341866609288 -0.0007707741070261457 0.0 -0.07747354358845965 -0.005293638595108298 0.0 -0.0974429670771438 -0.0031472414702607508 0.0 -0.04216470385281106 0.007235330893479223 0.0 -0.09385881112546317 0.0022550212700797514 0.0 -0.11491124029211675 0.0012484035480813999 0.0 -0.06630717325080965 -0.00032376186201261796 0.0 -0.03932342218298363 0.0042885094043391145 0.0 -0.11880340805043296 -0.0005478968926858752 0.0 0.07830233862088572 -0.00108677052188051 0.0 -0.037028531481605315 0.006200562512059872 0.0 -0.12142125228406679 0.0001706444961030026 0.0 -0.12029883350589383 0.000658849922572009 0.0 -0.021124794786036395 -0.0013402789528020452 0.0 0.0 0.0 0.0 0.9464302170621434 0.25543400455287285 0.0 0.951353265740464 0.040108570276681466 0.0 0.22819146317586658 -0.0036991443097622164 0.0 0.31083779573450243 -0.0037507347831063236 0.0 0.5457111105867648 0.02188823609720285 0.0 0.9127780381408274 0.04370718784691877 0.0 1.1921331693454291 0.035090812248147425 0.0 1.3538134159994786 0.014891939655225624 0.0 0.08852906648614578 0.003933234678418882 0.0 -0.03350199764285001 0.0011855182196247548 0.0 0.025803072173299177 -0.011582879752916185 0.0 0.138696492926177 -0.007826839751696959 0.0 0.12894482159719678 -0.01316751890552114 0.0 0.3189860114600625 -0.022585440011820154 0.0 0.5786519430808124 -0.05110244370399623 0.0 0.8612533387111054 -0.05213900543106712 0.0 0.37037337560032224 -0.031432125317932734 0.0 0.5580782037039224 -0.03524764643204814 0.0 0.6533224775693008 -0.0474866432366764 0.0 0.7719442255995839 -0.040516466791814205 0.0 0.2628569027502489 -0.028347666122152546 0.0 1.273686302496439 -0.06481671074793602 0.0 1.059529962975348 -0.051576712522832385 0.0 1.2868588464353987 -0.028808356384459367 0.0 1.0497167273050538 -0.039305499177411114 0.0 -0.03993731284569991 -0.009307197649832224 0.0 1.02875909475696 -0.06718551626039322 0.0 1.0606172046266042 -0.02962673039391865 0.0 1.2236770969818134 -0.10035895615117965 0.0 -0.10659638343551221 -0.003030494116679779 0.0 0.4641559108290771 -0.04621551121827468 0.0 1.2507650857287782 -0.10667532004787707 0.0 0.13507832739354303 -0.02236035864665251 0.0 -0.12026100268525117 -0.0002683863638844082 0.0 1.2625638068801917 -0.08843394950032364 0.0 0.06636247960542424 -0.02330165388800283 0.0 -0.10931455508363815 -0.0026207522728587296 0.0 -0.025776305619569458 0.009924535622517537 0.0 0.048855305102672324 -0.01908337499905183 0.0 -0.06500733632980853 -0.009736467623408391 0.0 0.42236637539939187 -0.05056353295793081 0.0 -0.04490558199806344 -0.013397604862819079 0.0 0.11327154985439469 0.025520245835101887 0.0 -0.08117527561801574 0.004922684283118146 0.0 -0.07033569438050248 -0.009852519659873023 0.0 -0.09750075995316386 -0.0016264882783543152 0.0 0.03956059280988683 0.016303173721266214 0.0 1.218557408919676 0.10440788793670742 0.0 0.32667924119723624 0.037407994086773734 0.0 0.3076810787857909 -0.04787418547229533 0.0 0.2590915270752846 -0.009354726397582492 0.0 0.7097782613624416 -0.020005489234296313 0.0 0.3076461086172024 0.006771172098891489 0.0 1.1764052920961312 0.05340168632604933 0.0 0.8886723245753448 0.06144805953727012 0.0 0.9318686612816804 -0.08420384260797677 0.0 -0.04742383682268654 -0.0025094440138599128 0.0 -0.056273503016869855 -0.002826782648299929 0.0 -0.1171882815106081 -0.000537049216220001 0.0 -0.04517291180013368 0.005310639955367556 0.0 -0.07709379579745246 -0.0036786025780080984 0.0 0.32968014707964594 -0.039548281353182786 0.0 1.258973322100465 -0.09485700929055643 0.0 0.6297070056110775 -0.06275117994930537 0.0 0.8963906026324767 -0.08775824412280894 0.0 -0.02796932265290453 0.010246368001429468 0.0 0.06363586841347059 -0.026401505732036177 0.0 -0.005360422200351573 -0.020042568197086025 0.0 0.21071496852446756 -0.04279595232488875 0.0 -0.013989283902547285 -0.018952280803185624 0.0 1.253672437304049 0.1043711223391975 0.0 -0.06466793651179686 -0.005837200345549576 0.0 -0.012573069116059998 0.005118362145132135 0.0 -0.049308645632908425 -0.005332290789488109 0.0 0.055669320726205014 -0.02700581077287404 0.0 0.33736816584738644 0.025944528473138866 0.0 0.6915026021206679 -0.07176863778998048 0.0 0.5108546730057992 -0.06215556649795568 0.0 0.7899159048652998 -0.0690149788784239 0.0 0.26810116425087444 -0.04059761005960376 0.0 0.8214112453762608 -0.09022769172082523 0.0 1.1679205462223758 -0.09239961641070316 0.0 1.069476505203732 -0.08466088031592689 0.0 1.042626097995341 -0.07570494070299906 0.0 0.5951471146856376 -0.072286781938293 0.0 0.505991942708256 -0.06786904907712513 0.0 0.3916156634287307 -0.061354339858553125 0.0 0.3679081240614881 -0.058099794947209335 0.0 0.14594671721228072 -0.037842887742513244 0.0 0.7878082864545618 -0.09086539375858504 0.0 0.26006689072017736 0.016222472758631108 0.0 0.6072765036722586 0.0388422878241902 0.0 0.06714684462081194 0.007660809217163244 0.0 0.17131909719010796 0.019015034087992034 0.0 -0.06979431411410628 0.0018361393101387648 0.0 1.3326637437902802 -0.024194068144047978 0.0 1.21747922599865 0.04113325989955081 0.0 1.3554064189934314 -0.011859959151750601 0.0 1.3271392578684902 -0.06362865563503137 0.0 0.17009790756068796 -0.04083434965635461 0.0 0.35596693079119784 -0.05815781946795507 0.0 0.5581651287821278 0.047434604460249885 0.0 0.0870228070322962 0.016219322025692002 0.0 1.3080013630299705 0.004312800391286815 0.0 1.3486406611067752 -0.03288273826011495 0.0 0.5167040553487295 0.06463366774979332 0.0 1.3275463364160203 -0.0774238909153936 0.0 0.5885137831670478 0.044129190920054844 0.0 1.2814870511469216 0.07165693792197506 0.0 0.33202349096601363 0.03419984753594607 0.0 0.7028022666064122 0.06361135272765764 0.0 1.3343394884796236 0.024386585870335428 0.0 1.231468216547575 -0.0241421364959122 0.0 1.3179882955929523 -0.08766649236814249 0.0 0.8242718858699511 0.06166847139845114 0.0 1.0465224773782016 0.07855324168372971 0.0 1.106106279052875 0.07232812303506889 0.0 1.2658592922950458 0.09676929906338579 0.0 1.126791867599547 0.09541985128007155 0.0 0.9732143837005561 0.08047982221388113 0.0 0.6668894796327095 0.06633351505313279 0.0 1.2728058799191317 -0.09079215074548543 0.0 0.0 0.0 0.0 1.3073133791193925 0.05759398635592008 0.0 0.9146859245257422 0.08743674425594436 0.0 0.3240843949581198 0.04086039518038113 0.0 1.3151301126326025 0.07100997201020427 0.0 0.8972075853679402 0.08372144149830021 0.0 1.2695237634301435 0.08997424492334193 0.0 0.5960699924066563 0.06447251855856245 0.0 1.2614794526781117 0.1016906055173954 0.0 0.5473823522846488 0.06497102992094188 0.0 0.2549299562953241 0.03775367013015485 0.0 1.1450777402394088 0.09937279643320528 0.0 0.6591616964011996 0.07225096647839868 0.0 1.0708987503223264 0.10080419088969114 0.0 0.8423477081619586 0.08765690163653292 0.0 0.7740114826184532 0.08543394571491332 0.0 1.1941509056034232 0.08763782305137213 0.0 1.1143160482477545 0.0904535017128504 0.0 1.3055588897532875 0.08088920514607621 0.0 0.15521945089498293 0.02722533758094425 0.0 1.1531407887456293 0.07819603494384911 0.0 1.2158730733985392 0.10433844709544147 0.0 1.1566728240361286 0.10519501751255618 0.0 1.2353264216221604 0.10676408363415227 0.0 1.2446965169435673 0.10697294320446192 0.0 1.2908954327581328 0.08580032349385924 0.0 1.1830227767895833 0.06767421211627646 0.0 0.9449121962296588 0.09906865105658375 0.0 1.23059826653085 0.09167884097382903 0.0 1.2790779134729902 0.08929667651616432 0.0 1.0458081414804399 0.06452463714357824 0.0 1.1630873349683806 0.1081881441617669 0.0 1.0806443622324118 0.10732588308251943 0.0 1.0590833536793292 0.10375606500333459 0.0 1.2341063380534822 0.09652849555141896 0.0 0.0 0.0 0.0 0.6445120288840229 -0.005550690970372965 0.0 1.077881999537636 0.4342354111663568 0.0 1.1669646345137195 0.4222264181140246 0.0 1.082240747871782 -0.42671831870063026 0.0 0.865570495528577 -0.2269850390078125 0.0 0.9788436946860627 -0.25546806460368404 0.0 0.8923678963595888 -0.08497547948932299 0.0 1.2231841863361792 -0.05216989750382008 0.0 1.081728281159731 -0.0640677176043365 0.0 1.198891436445567 -0.10460659880865944 0.0 1.2651583157835944 -0.0844987548826447 0.0 1.3153605042682261 -0.053571039367455 0.0 -0.08464176648079905 -0.0020603363698979194 0.0 -0.04990435652462232 0.007557695672136743 0.0 0.00261095311141509 0.0099028218199802 0.0 0.0017122793046523246 0.011641238367734208 0.0 0.1509069154451078 0.02651143543092687 0.0 -0.05800317783765272 0.008229677997662754 0.0 0.06322646037011045 0.021736640112181224 0.0 0.2225038678624536 0.03725452849193021 0.0 0.08702694739957934 0.0387793164503636 0.0 -0.037009852549027354 0.015340362457560656 0.0 1.0347698066213211 0.16072563655346175 0.0 -0.06928285868262934 0.0053502429085776106 0.0 1.2552234977708603 -0.10196212269726776 0.0 1.1438195347377247 -0.09992207335041557 0.0 0.9536546911056242 -0.0945583555907553 0.0 1.1055739643697968 -0.10400009097637457 0.0 1.2378381720612937 -0.10596469314502184 0.0 0.9154677207280145 -0.09769842160608021 0.0 1.2460893556759958 -0.10714425989757899 0.0 1.0784820656632104 -0.10629119836993534 0.0 1.1338822970907005 -0.1063878938345122 0.0 0.8639565090561404 -0.09605521472491389 0.0 0.9084322372057736 -0.09896962335376416 0.0 0.6278461691849372 -0.08052589413966497 0.0 1.103731120281288 -0.10786688992512872 0.0 1.230958964887278 -0.10456882773749175 0.0 1.0672901974553075 -0.10460618437804613 0.0 1.1667148938797702 -0.08530851641387502 0.0 1.191278048758764 -0.1076124072759604 0.0 0.6809565169827058 -0.08253898346690723 0.0 1.1384418014252506 -0.10362557308034921 0.0 0.9371342922738369 -0.097654