<?xml version="1.0"?>
<VTKFile type="UnstructuredGrid"  version="0.1"  >
<UnstructuredGrid>
<Piece  NumberOfPoints="1289" NumberOfCells="2413">
<Points>
<DataArray  type="Float64"  NumberOfComponents="3"  format="ascii">0 0 0  0 0.41 0  2.2 0.41 0  2.2 0 0  0.1 0.1 0  0.1 0.3 0  0.8 0.3 0  0.8 0.1 0  0.25 0.2 0  0.248976 0.210065 0  0.245948 0.219718 0  0.241038 0.228563 0  0.234448 0.23624 0  0.226448 0.242432 0  0.217365 0.246888 0  0.207571 0.249423 0  0.197468 0.249936 0  0.187467 0.248404 0  0.17798 0.24489 0  0.169395 0.239539 0  0.162062 0.232569 0  0.156283 0.224265 0  0.152293 0.214968 0  0.150257 0.205058 0  0.150257 0.194942 0  0.152293 0.185032 0  0.156283 0.175735 0  0.162062 0.167431 0  0.169395 0.160461 0  0.17798 0.15511 0  0.187467 0.151596 0  0.197468 0.150064 0  0.207571 0.150577 0  0.217365 0.153112 0  0.226448 0.157568 0  0.234448 0.16376 0  0.241038 0.171437 0  0.245948 0.180282 0  0.248976 0.189935 0  1.1 0 0  1.1 0.41 0  0.1 0.2 0  0.45 0.1 0  0.45 0.3 0  0.55 0 0  0.275 0.1 0  0.275 0.3 0  0.275 0 0  0.55 0.41 0  0 0.205 0  0.825 0 0  0.825 0.41 0  0.275 0.41 0  0.1 0.15 0  0.1875 0.1 0  0.1 0.25 0  0.1875 0.3 0  0.132322 0.2 0  0.241426 0.253518 0  0.241426 0.146482 0  0.264574 0.17974 0  0.264574 0.22026 0  0.138434 0.187348 0  0.153372 0.150948 0  0.148413 0.164094 0  0.176495 0.136535 0  0.22768 0.143571 0  0.138434 0.212652 0  0.148413 0.235906 0  0.176495 0.263465 0  0.22768 0.256429 0  0.23125 0.3 0  0.24769 0.24094 0  0.23125 0.1 0  0.24769 0.15906 0  0.26253 0.193641 0  0.190482 0.137872 0  0.166753 0.146661 0  0.157737 0.244461 0  0.190482 0.262128 0  0.203107 0.261264 0  0.253635 0.22977 0  0.203107 0.138736 0  0.253635 0.17023 0  0.261028 0.206206 0  0.167707 0.251809 0  0.143629 0.224191 0  0.215302 0.2591 0  0.270465 0.245894 0  0.215302 0.1409 0  0.270465 0.154106 0  0.284052 0.202587 0  0.14375 0.3 0  0.209375 0.3 0  0.225966 0.278501 0  0.209375 0.1 0  0.225966 0.121499 0  0.211613 0.273759 0  0.211613 0.126241 0  0.143629 0.175809 0  0.1 0.175 0  0.133484 0.164832 0  0.144491 0.249539 0  0.1 0.225 0  0.133484 0.235168 0  0.3625 0.3 0  0.25691 0.253381 0  0.25691 0.146619 0  0.277205 0.188698 0  0.184724 0.275712 0  0.237372 0.268285 0  0.184724 0.124288 0  0.237372 0.131715 0  0.197578 0.273149 0  0.193656 0.286994 0  0.197578 0.126851 0  0.193656 0.113006 0  0.122953 0.187671 0  0.118362 0.153758 0  0.155372 0.258107 0  0.122953 0.212329 0  0.118362 0.246242 0  0.276394 0.27264 0  0.276394 0.12736 0  0.280965 0.170013 0  0.253125 0.3 0  0.14375 0.1 0  0.253125 0.1 0  0.269489 0.26014 0  0.269489 0.13986 0  0.303639 0.184297 0  0.165625 0.3 0  0.134742 0.273113 0  0.257831 0.274737 0  0.255279 0.128499 0  0.3625 0.1 0  0.165625 0.1 0  0.162031 0.132368 0  0.134955 0.126405 0  0.149334 0.125568 0  0.142936 0.139597 0  0.12695 0.140259 0  0.242514 0.285501 0  0.242514 0.114499 0  0.1 0.125 0  0.117483 0.12555 0  0.11154 0.139776 0  0.121875 0.1 0  0.109143 0.1125 0  0.126805 0.114 0  0.220313 0.29129 0  0.351562 0.287369 0  0.207222 0.2866 0  0.220312 0.10871 0  0.1375 0 0  0.20625 0 0  0.207222 0.1134 0  0.11722 0.17118 0  0.1 0.1625 0  0.0778409 0.16875 0  0.0862762 0.15625 0  0 0.15375 0  0 0.1025 0  0.11722 0.22882 0  0.1 0.2375 0  0 0.3075 0  0.0862762 0.23125 0  0.0598995 0.222547 0  0.0860223 0.2125 0  0.289584 0.181469 0  0.300267 0.16446 0  0.163832 0.269071 0  0.149597 0.273325 0  0.1 0.275 0  0.268498 0.285953 0  0.31875 0.3 0  0.294154 0.254672 0  0.296875 0.3 0  0.293558 0.271845 0  0.285095 0.286799 0  0.324298 0.264316 0  0.307866 0.263745 0  0.317093 0.234901 0  0.315485 0.281219 0  0.316547 0.250625 0  0.344693 0.243731 0  0.331592 0.251147 0  0.35129 0.270663 0  0.338689 0.263683 0  0.340625 0.3 0  0.249849 0.264383 0  0.265097 0.11422 0  0.284688 0.156136 0  0.242188 0.324017 0  0.0856613 0.2625 0  0.132812 0.0612217 0  0.264062 0.0612217 0  0.198437 0.07598340000000001 0  0.0860223 0.1375 0  0.0794526 0.191089 0  0.285228 0.140397 0  0.298655 0.148737 0  0.31875 0.1 0  0.327335 0.15374 0  0.296875 0.1 0  0.312289 0.155283 0  0.313348 0.135607 0  0.321802 0.173916 0  0.298433 0.134116 0  0.112124 0.2625 0  0.127526 0.259083 0  0.121875 0.3 0  0.0682687 0.241503 0  0.1 0.2875 0  0.117762 0.28125 0  0.107813 0.3 0  0.103906 0.313849 0  0.0778409 0.28125 0  0.1375 0.41 0  0.0862762 0.29375 0  0.08886860000000001 0.24375 0  0.307812 0.338778 0  0.307812 0.292227 0  0.33216 0.279164 0  0.387888 0.266414 0  0.264063 0.31948 0  0.110937 0.07598340000000001 0  0.242188 0.07598340000000001 0  0.319914 0.11839 0  0.340625 0.1 0  0.334448 0.133793 0  0.329687 0.108539 0  0.346259 0.118491 0  0.360334 0.173636 0  0.327539 0.205033 0  0.132812 0.288712 0  0.362436 0.278836 0  0.368105 0.259418 0  0.4125 0.41 0  0.329687 0.324017 0  0.329687 0.292306 0  0.285938 0.318952 0  0.417187 0.338778 0  0.324481 0.14148 0  0.351562 0.106771 0  0.40625 0.1 0  0.341028 0.168342 0  0.319221 0.190479 0  0.335292 0.184501 0  0.305563 0.20794 0  0.220313 0.31948 0  0.132812 0.332772 0  0.0865876 0.311259 0  0.0598995 0.302453 0  0.0906541 0.343255 0  0.353543 0.255837 0  0.36574 0.237633 0  0.405007 0.254279 0  0.275795 0.352123 0  0.4125 0 0  0.35493 0.137394 0  0.366563 0.120618 0  0.35917 0.205246 0  0.198438 0.318952 0  0.0626109 0.263892 0  0.40625 0.3 0  0.354809 0.155936 0  0.386512 0.146872 0  0.373101 0.159939 0  0.384375 0.1 0  0.343394 0.19929 0  0.350682 0.185683 0  0.368101 0.189748 0  0.344016 0.221511 0  0.391108 0.213329 0  0.376279 0.204783 0  0.398843 0.182768 0  0.375804 0.222746 0  0.390665 0.196958 0  0.394004 0.23518 0  0.359883 0.222828 0  0.419908 0.204359 0  0.404243 0.204783 0  0.412615 0.224526 0  0.20625 0.41 0  0.165625 0.325257 0  0.0347982 0.244954 0  0.379558 0.247154 0  0.34165 0.147603 0  0.372264 0.136992 0  0.388988 0.121989 0  0.373437 0.108554 0  0.351562 0.31948 0  0.391367 0.16527 0  0.399572 0.223324 0  0.452011 0.227371 0  0.40877 0.239392 0  0.431491 0.237337 0  0.421224 0.250459 0  0.449619 0.262098 0  0.418865 0.276779 0  0.437063 0.252274 0  0.415673 0.263227 0  0.430988 0.266772 0  0.402767 0.273419 0  0.452967 0.244883 0  0.428125 0.3 0  0.408502 0.286186 0  0.384375 0.3 0  0.392267 0.285807 0  0.465927 0.219339 0  0.43489 0.283846 0  0.376424 0.286289 0  0.625 0.3 0  0.473533 0.205186 0  0.461713 0.255517 0  0.5375 0.3 0  0.465725 0.235405 0  0.44631 0.201425 0  0.471875 0.3 0  0.494307 0.227729 0  0.459448 0.206736 0  0.462294 0.180792 0  0.478933 0.227536 0  0.486793 0.21381 0  0.486322 0.251373 0  0.50065 0.215318 0  0.54005 0.175389 0  0.474633 0.189893 0  0.512916 0.208697 0  0.49531 0.199967 0  0.475889 0.175275 0  0.625 0.1 0  0.459311 0.153933 0  0.513645 0.242704 0  0.392892 0.248539 0  0.374815 0.271913 0  0.365974 0.14871 0  0.395312 0.109184 0  0.417061 0.123981 0  0.483196 0.277003 0  0.381967 0.179632 0  0.429898 0.219374 0  0.433473 0.206165 0  0.43149 0.181038 0  0.444208 0.215487 0  0.472985 0.247309 0  0.49375 0.3 0  0.475579 0.262714 0  0.49916 0.274293 0  0.501175 0.184809 0  0.514164 0.225681 0  0.543648 0.214977 0  0.5341630000000001 0.23481 0  0.527396 0.216171 0  0.5375 0.1 0  0.534548 0.202315 0  0.561545 0.192513 0  0.5494289999999999 0.201221 0  0.570923 0.218346 0  0.412582 0.149833 0  0.489327 0.264745 0  0.502439 0.254775 0  0.462391 0.271166 0  0.496775 0.241732 0  0.5294410000000001 0.268606 0  0.482812 0.291099 0  0.46879 0.285038 0  0.452663 0.284065 0  0.51789 0.257882 0  0.53408 0.252026 0  0.560142 0.243543 0  0.545708 0.243474 0  0.547532 0.229019 0  0.55282 0.265323 0  0.398971 0.153424 0  0.400349 0.135684 0  0.410135 0.168145 0  0.428823 0.161323 0  0.415266 0.183779 0  0.329687 0.0810483 0  0.395312 0.0612217 0  0.373437 0.318952 0  0.439062 0.324017 0  0.561816 0.229354 0  0.585029 0.239287 0  0.431827 0.139854 0  0.446796 0.168929 0  0.351562 0.07598340000000001 0  0.395313 0.318944 0  0.54337 0.150762 0  0.460937 0.31948 0  0.418412 0.137529 0  0.428125 0.1 0  0.442783 0.152332 0  0.450742 0.134294 0  0.373437 0.0805201 0  0.384383 0.342558 0  0.482812 0.318952 0  0.429239 0.127457 0  0.444274 0.117405 0  0.426548 0.113815 0  0.49375 0.1 0  0.488954 0.113984 0  0.457973 0.121842 0  0.471621 0.137346 0  0.515625 0.325257 0  0.48125 0.41 0  0.417187 0.07598340000000001 0  0.496363 0.126778 0  0.479043 0.155715 0  0.439062 0.0805201 0  0.481795 0.126919 0  0.471875 0.1 0  0.489227 0.142159 0  0.515625 0.1 0  0.520062 0.147117 0  0.501244 0.161791 0  0.505431 0.112984 0  0.505344 0.14029 0  0.526563 0.119081 0  0.5181750000000001 0.131908 0  0.539868 0.136937 0  0.460937 0.108383 0  0.474242 0.114415 0  0.460937 0.0810483 0  0.487841 0.167168 0  0.526563 0.0612217 0  0.526563 0.106406 0  0.537619 0.112743 0  0.58125 0.1 0  0.559375 0.1 0  0.482812 0.08105569999999999 0  0.471883 0.0587655 0  0.570312 0.129396 0  0.548437 0.07598340000000001 0  0.504687 0.08105569999999999 0  0.49375 0.0470127 0  0.570312 0.112663 0  0.592798 0.12103 0  0.553986 0.12103 0  0.570312 0.0805201 0  0.48125 0 0  0.114787 0.2 0  0.160769 0.284765 0  0.175816 0.288361 0  0.162602 0.116048 0  0.154687 0.07598340000000001 0  0.176562 0.0805201 0  0.0598995 0.147547 0  0.307812 0.109924 0  0.291279 0.117157 0  0.278491 0.112989 0  0.285937 0.07598340000000001 0  0.307812 0.0805201 0  0.296928 0.196743 0  0.318141 0.218507 0  0.330208 0.227509 0  0.301397 0.225668 0  0.302706 0.241401 0  0.292574 0.21424 0  0.282762 0.230935 0  0.284351 0.244775 0  0.269553 0.23261 0  0.278572 0.217242 0  0.226924 0.342606 0  0.446928 0.185396 0  0.515625 0.3 0  0.504687 0.288879 0  0.515256 0.276534 0  0.529479 0.285328 0  0.58125 0.3 0  0.541969 0.272936 0  0.559375 0.3 0  0.556796 0.282529 0  0.543473 0.287206 0  0.581429 0.267774 0  0.566728 0.271171 0  0.570869 0.255585 0  0.577404 0.283865 0  0.603125 0.3 0  0.597531 0.28035 0  0.570312 0.338778 0  0.592188 0.292492 0  0.603513 0.256094 0  0.614063 0.286265 0  0.610329 0.27064 0  0.632708 0.251285 0  0.657223 0.261594 0  0.618789 0.257807 0  0.614188 0.22987 0  0.630935 0.265614 
[...]
<PointData  Vectors="v"> 
	<DataArray  type="Float64"  Name="v"  NumberOfComponents="3" format="ascii">
0.0 0.0 0.0 0.0 0.0 0.0 0.0 0.0 0.0 0.0 0.0 0.0 0.7962715536703342 -0.1960513380192543 0.0 0.8403665356670804 0.20768501068196074 0.0 1.1624497851994373 -0.055493172740191936 0.0 1.1432011862028355 0.059892386779768665 0.0 0.0 0.0 0.0 0.0 0.0 0.0 0.0 0.0 0.0 0.0 0.0 0.0 0.0009545972755904739 0.0009611730346174876 0.0 0.004107284630883544 0.006977891473810687 0.0 0.00158221330984735 0.0027512538100109576 0.0 0.0 0.0 0.0 0.0 0.0 0.0 0.0 0.0 0.0 0.0 0.0 0.0 0.0 0.0 0.0 0.0 0.0 0.0 0.0 0.0 0.0 0.0 0.0 0.0 0.0 0.0 0.0 0.0 0.0 0.0 0.0 0.0 0.0 0.0 0.0 0.0 0.0 0.0 0.0 0.0 0.0 0.0 0.0 0.0 0.0 0.0 0.0 0.0 0.0 0.0 0.0 0.0 0.0 0.0 -0.0007875090085052396 0.0013598322708468008 0.0 -0.0040662733090810815 0.007179768548753032 0.0 0.0007454881858539185 -0.0006077184003814687 0.0 0.0 0.0 0.0 0.0 0.0 0.0 0.0 0.0 0.0 0.0 0.0 0.0 0.0 0.0 0.0 0.7613302372542422 -0.001428173074878014 0.0 1.2762136627361256 0.0835374191277948 0.0 1.2654535776940454 -0.07672665780016262 0.0 0.0 0.0 0.0 1.3535738716671122 -0.13281917965253895 0.0 1.358124213228547 0.15502652663012226 0.0 0.0 0.0 0.0 0.0 0.0 0.0 1.0 0.0 0.0 0.0 0.0 0.0 0.0 0.0 0.0 0.0 0.0 0.0 0.8426344100789641 -0.2320056111684205 0.0 1.1515500621857058 -0.34434836303614874 0.0 0.8637491171106978 0.2291827520074603 0.0 1.1661409823819173 0.3540053974028446 0.0 0.428235879006189 -0.004150749238666999 0.0 0.16773904456765626 0.06308640076407986 0.0 0.16723082946745887 -0.0596790774824079 0.0 -0.028103527629012665 -0.03885505659280474 0.0 -0.026408335707451852 0.036810659511144636 0.0 0.33441224871423564 -0.28004276803114214 0.0 0.8579979586856965 -0.6736054853423024 0.0 0.6400859529078793 -0.6883249033386037 0.0 1.2062789742681825 -0.6134008836605314 0.0 0.4184663197213478 -0.06723736654161933 0.0 0.3304162375990408 0.26854954320573543 0.0 0.6427562368018012 0.6691557904098454 0.0 1.1850747901574465 0.6152694756750571 0.0 0.4059434466333284 0.07285254825770754 0.0 1.3130407411121194 0.2610511636301337 0.0 0.3300537247308374 0.25559360788304 0.0 1.302755585906067 -0.24021996764809878 0.0 0.3189643077612978 -0.24407849227681047 0.0 -0.03402384385094429 -0.01720951023736125 0.0 1.1249692647214617 -0.39883464929133833 0.0 1.093337417656902 -0.7244640939143385 0.0 0.8519668947875755 0.7706063618280572 0.0 1.1314287246946086 0.3994819428292311 0.0 0.7595966260353254 0.1858020299119776 0.0 0.11000378398709107 0.05224442786844472 0.0 0.7693409980876791 -0.18212498982578276 0.0 0.11192826115554415 -0.05076456975490639 0.0 -0.030068325223715733 0.019449037504551268 0.0 1.0274370539943405 0.7187821670985344 0.0 0.44231196177820575 0.5290071543118118 0.0 0.45691710008724046 0.1764589572672232 0.0 0.27689259992920606 0.0700162565208421 0.0 0.46561712989398146 -0.17502980207526178 0.0 0.2803128902111002 -0.06521632020242363 0.0 -0.07609131171554419 0.0021444986326214694 0.0 0.9653986193702678 0.31732072028686664 0.0 1.260354924999511 0.31313441777547296 0.0 1.2447206575353673 0.2887487275809277 0.0 1.2350220037684656 -0.30762012225048585 0.0 1.2484059017569709 -0.2809350858253368 0.0 1.219995447203222 0.33079845321945844 0.0 1.226517241916449 -0.32279880232050073 0.0 0.4429667917062197 -0.5447661259560566 0.0 0.8020421707452927 -0.13976859665659574 0.0 0.6715754862033291 -0.4198748785496317 0.0 0.8772897988646988 0.5937013478490885 0.0 0.7992840118828273 0.14266502631360717 0.0 0.6764354431277247 0.4199738611442081 0.0 1.2925669730914304 -0.0073406251664179314 0.0 0.2962342611951331 0.14621512267065606 0.0 0.29586181725706806 -0.13599421930938532 0.0 -0.055124644714320666 -0.013097108814063148 0.0 1.2649768946988753 0.47167930395208746 0.0 0.7683599351757098 0.12111343533067956 0.0 1.2612686289756923 -0.4733742829556197 0.0 0.78957020993061 -0.11481729134079786 0.0 1.2754922098404662 0.4178812997803067 0.0 1.2538460752473342 0.40101278690153236 0.0 1.2717997930708753 -0.41436799034594096 0.0 1.2448897465278346 -0.3811618438926686 0.0 0.5835557953808387 -0.16070406941388152 0.0 0.7964880005871469 -0.3319485977247891 0.0 1.0103464506497384 0.6036750907873931 0.0 0.5917283649827486 0.15043191433714825 0.0 0.812515732812812 0.33156118225672976 0.0 0.7459509513668221 0.08121626004679533 0.0 0.7829415932191109 -0.07314225116127077 0.0 0.052863568905936284 -0.02203449046811124 0.0 1.3632311993701065 0.2075909631564978 0.0 0.9299051868939318 -0.32229561011476443 0.0 1.3446110305942198 -0.18985733148906767 0.0 0.411640563085262 0.09194607645069541 0.0 0.4281663744560397 -0.07886939219567618 0.0 -0.05485881908702344 -0.008157309413672086 0.0 1.057260316386061 0.35391331169840673 0.0 0.9430928986167315 0.39135966020487145 0.0 0.9217924194133387 0.11271886186865367 0.0 0.8246286201080718 -0.08650145605694902 0.0 1.306994770215135 0.016504262034742086 0.0 1.0276221755524086 -0.34524277607001735 0.0 1.074605336138082 -0.5704269530650299 0.0 0.9302137546826783 -0.3894960711960054 0.0 0.9975655059444624 -0.4387438957092202 0.0 0.9330255541034387 -0.542953597644745 0.0 0.8656003495904921 -0.4066235048175271 0.0 1.2733765005752198 0.23300686813358126 0.0 1.2714416310555676 -0.21929234309317194 0.0 0.8526978428573543 -0.23572158305638544 0.0 0.8791107045208393 -0.31005104898974534 0.0 0.8529478391785631 -0.2991567937949243 0.0 0.8514704893528191 -0.2564704313654143 0.0 0.8542629770875515 -0.25286059701844077 0.0 0.8963422379167001 -0.3195520855382385 0.0 1.328937567793456 0.3155346992696153 0.0 1.08461186736677 -0.002588470096651514 0.0 1.3143793228531622 0.3622556273602173 0.0 1.3216306310900565 -0.2959476663200645 0.0 0.0 0.0 0.0 0.0 0.0 0.0 1.2996869363402301 -0.3494548974942307 0.0 0.7142816137903518 -0.26747104090063595 0.0 0.8204247710466476 -0.2108889931135338 0.0 0.8711869302605351 -0.11085681154685934 0.0 0.8624650231642028 -0.16387079853890832 0.0 0.9375 0.0 0.0 0.7500000000000001 0.0 0.0 0.7224435956420706 0.2651523111578709 0.0 0.8240105295861979 0.20001895845243717 0.0 0.7499999999999999 0.0 0.0 0.8697002724257519 0.12770961716431606 0.0 0.9287061526607522 0.04276074364208089 0.0 0.8481083242730872 0.04495034323088475 0.0 -0.03520563874144869 -0.011582728034698488 0.0 0.09273690310308223 -0.017367765811389713 0.0 1.1149315496638612 0.5546624723373128 0.0 1.0189342962857488 0.47303535650441797 0.0 0.8809356123376466 0.2453769798416535 0.0 1.1998125120619747 0.13928199747712744 0.0 1.3288157393328808 0.059846573720591656 0.0 0.3556006864640152 0.03833641150090794 0.0 1.3560599008220244 0.10300376434540096 0.0 0.7146931725027902 0.05413993248329831 0.0 1.1709869054292124 0.10045081087180632 0.0 0.5164070508690533 0.015855798608856893 0.0 0.49824770092849346 0.03023691747188341 0.0 0.07134179014759401 0.012652826893407534 0.0 0.9568080192945171 0.03463249342838591 0.0 0.25967610342406056 0.021901165455996636 0.0 0.16486233670077588 0.007756875142406083 0.0 0.2698457925675249 0.014205005996757752 0.0 0.6676230546731872 -0.005031019568231158 0.0 0.4999377922904678 0.0068277247457995925 0.0 1.3156635224943432 0.01923097324625647 0.0 0.5422283254859475 0.0623643259051465 0.0 1.2305277762967612 -0.14190456556996886 0.0 0.2041863985130158 -0.037636874128213565 0.0 1.2056487157747933 0.17361205135228477 0.0 0.8828006928119383 0.17965083842938256 0.0 0.701179405953835 -0.16798841568951312 0.0 1.1155450907868116 -0.09413023099513819 0.0 1.038643583184713 -0.22373257409300162 0.0 0.8637796845729057 -0.18273857829337406 0.0 0.8754238097476019 -0.02570198294990382 0.0 0.4413141987145761 -0.04828936254418081 0.0 0.29267150789267543 -0.033101011901214325 0.0 1.3289943420131771 -0.041961210648162106 0.0 0.21028586422511616 -0.013461845625792354 0.0 1.3554930557630733 -0.08634497609404602 0.0 0.19334845918654867 -0.018946460417471105 0.0 0.5369612810314048 -0.015774344064094916 0.0 -0.000955754405040922 -0.011223080721104919 0.0 0.5735594167475847 -0.031570725321258715 0.0 0.8788475139199311 0.2970451714011878 0.0 0.8795048089576364 0.4106463877124885 0.0 0.8850384037340385 0.27025052970399877 0.0 0.9122077546206396 0.10976666063007719 0.0 0.8651423907917691 0.22321303273025495 0.0 0.9046762352675144 0.30362032448639975 0.0 0.8571934559462895 0.23344187096669497 0.0 0.8019865312002209 0.18331760440501058 0.0 0.8670317724750688 0.16145935543716786 0.0 0.0 0.0 0.0 0.8414910040772288 0.1766244743547849 0.0 0.8706347079699152 0.17092014981824677 0.0 1.2130994983199246 0.049820536840046455 0.0 1.2375118515757881 0.0650388142262498 0.0 0.8906464748203722 0.013207386644728664 0.0 0.5946198449556416 -0.02651159455013993 0.0 1.2797858589560813 0.1472445401196736 0.0 0.7176594784302259 -0.1737734463284544 0.0 1.1780421489906245 -0.16445623365305223 0.0 0.999099312616738 -0.019831059442996814 0.0 1.3236889520097586 -0.00784859641350748 0.0 0.5867217175214091 -0.0002718227075781071 0.0 1.2206771672834187 -0.012664558823460643 0.0 0.9839371472613486 0.009060848507901361 0.0 -0.003451423819382657 -0.007577374749503024 0.0 -0.09641122795798386 0.0004468827218455703 0.0 0.9447924676900008 0.3411309698291678 0.0 0.8781520020797848 -0.01866292407139919 0.0 0.4286655821061238 -0.008773669282365603 0.0 0.0 0.0 0.0 1.3286384869070684 0.03750022149481032 0.0 1.2125434661197239 0.02490647717431319 0.0 1.3171913394719494 0.11471788195970062 0.0 1.2522763005705209 -0.04411220819449146 0.0 0.41525930206075623 -0.013832018864315431 0.0 1.2285519323095884 0.01034572006337215 0.0 1.2916471421105684 0.05690016908711831 0.0 0.042169854017440694 -0.01001759562656055 0.0 -0.08280027310283741 -0.0054429852693480335 0.0 -0.06744424905452981 -0.0078442252418602 0.0 -0.08177537732043158 0.002461502938926894 0.0 1.1856414458676379 0.21975249767852423 0.0 0.7773899857817862 0.19841582093689977 0.0 0.7778878753085667 0.15416967107130133 0.0 0.7857236559763003 0.10685807372485014 0.0 0.6205452778909212 0.1109376582195643 0.0 0.35451771820130795 0.000907209411679821 0.0 0.09416660463326665 0.002807814183167853 0.0 0.36503455252719946 -0.02144732693497265 0.0 1.0718912639489617 0.07677585284873142 0.0 0.0 0.0 0.0 0.5212822876166424 0.011139528165414891 0.0 0.9324937294862814 0.028947670298526695 0.0 -0.1091922037991727 -0.00045118170233197284 0.0 1.0968737928416799 0.26698211800924937 0.0 0.9003211445598461 0.11232774502898758 0.0 1.2798121655622678 -0.04952410553671205 0.0 0.18844035884593932 -0.0039774507748589275 0.0 0.360686445365337 0.017256685691798265 0.0 0.144774988566273 -0.0004348880413845596 0.0 1.3032634731630788 0.03915138408717819 0.0 -0.10611557936258526 -0.0023414924779885716 0.0 -0.07709660397496114 -0.00714126760167746 0.0 -0.09721742168475649 -0.0054764601584490705 0.0 -0.04313446084426949 0.005991645439033925 0.0 -0.09509405019582495 -0.0002773094727050238 0.0 -0.11546696578008986 -0.001151052511423931 0.0 -0.06570598391002822 -0.003072714546129313 0.0 -0.04097367840180234 0.0021681939030782863 0.0 -0.11903754456595525 -0.0032086639286543267 0.0 0.07564271430168723 -0.003252344884104348 0.0 -0.03840198798057805 0.004524375466370212 0.0 -0.12233293343526329 -0.002174895674142372 0.0 -0.12113237312370344 -0.0019781652500379283 0.0 -0.023449692874736437 -0.0036823825234020948 0.0 0.0 0.0 0.0 0.946317663443743 0.25539311743976206 0.0 0.9513507438389127 0.040062599114301635 0.0 0.2255998222317399 -0.005419729235561175 0.0 0.31038323048105343 -0.004647757405730175 0.0 0.5457620568078596 0.020542691429880317 0.0 0.913147699740646 0.04269825462982244 0.0 1.1924107767993521 0.034363992004789165 0.0 1.3536471373430063 0.01459680400548445 0.0 0.08976291388834015 0.0014258923968862025 0.0 -0.03555379219189188 -0.0012450816815935462 0.0 0.022723797927434494 -0.011762239573176674 0.0 0.1355295262680524 -0.009905863243899896 0.0 0.1254489044392769 -0.014619573595837567 0.0 0.31525167099903806 -0.024088633744744313 0.0 0.5741350123142046 -0.05079250616420643 0.0 0.8589474159787384 -0.052654901440182415 0.0 0.3661188996615189 -0.0322088071491545 0.0 0.5549653016900322 -0.03644832452538067 0.0 0.649825217982253 -0.04806754883423031 0.0 0.7700505404156702 -0.041535249131151156 0.0 0.2584541474622354 -0.028272547556332697 0.0 1.2721215588902066 -0.06441251075435879 0.0 1.058058866428094 -0.05200703758129781 0.0 1.2862055088620938 -0.029261824079387724 0.0 1.0487602878237294 -0.04002180873830399 0.0 -0.042467769763261456 -0.008198047872308222 0.0 1.0261519875417175 -0.06679362493472378 0.0 1.0600637678848293 -0.030386979066870084 0.0 1.2301283549691981 -0.10565060894224891 0.0 -0.10786052513310856 -0.0010109853484591173 0.0 0.45921571925875626 -0.0451834416295714 0.0 1.2522347796777213 -0.10398833517039861 0.0 0.13121142595617374 -0.021205466932778236 0.0 -0.12110662229832869 -0.001060086912901004 0.0 1.2608044769085094 -0.08625863482114175 0.0 0.06327345580688193 -0.018652794100831035 0.0 -0.11070386068666974 -0.002138349552842513 0.0 -0.024652286844838802 0.010706920891700106 0.0 0.045709818479205896 -0.01620258222053333 0.0 -0.06701771481543992 -0.005973262161883516 0.0 0.4173276035845619 -0.04736613181360029 0.0 -0.04690292696588572 -0.0077249592391021105 0.0 0.11279625436096727 0.03537951751588261 0.0 -0.0810364157580835 0.007031181806043416 0.0 -0.0718350563325781 -0.0022429318211508137 0.0 -0.09839623748083288 0.0034670562587404193 0.0 0.04125375658592513 0.018669324083097467 0.0 1.2125828749140934 0.09961564863107059 0.0 0.33007148260233593 0.03793447832158375 0.0 0.3041240346653988 -0.041425834102712764 0.0 0.2561760163340655 -0.01123415780591923 0.0 0.7086134129130348 -0.021060373825805702 0.0 0.30792374164229047 0.005180580649335158 0.0 1.1771499701984138 0.052832502879257406 0.0 0.89017428989896 0.060859108920050545 0.0 0.9276067633955262 -0.08125441546727237 0.0 -0.04675090154542998 -0.005086797711146491 0.0 -0.058487048730548725 -0.0046057417458085885 0.0 -0.11831800378569161 -0.002256357270136947 0.0 -0.044301731379939424 0.00348287365380193 0.0 -0.07907733944703735 -0.004681445369629788 0.0 0.3248745328639277 -0.03761352594286809 0.0 1.2578095544223422 -0.09202258770610824 0.0 0.6245569515580386 -0.06046783852508045 0.0 0.8921003786047027 -0.08380014145203754 0.0 -0.027522451650460442 0.016018024698236048 0.0 0.06134159326905845 -0.019126378348655108 0.0 -0.0061183260447525275 -0.009242249444547547 0.0 0.2088722599669789 -0.03409614097544776 0.0 -0.015424432553372225 -0.009651323991908135 0.0 1.2519610091648308 0.10709357759327971 0.0 -0.06567566624752005 0.004408479348201885 0.0 -0.014466208688405814 0.017175279288570773 0.0 -0.05032169192690956 0.006294097181750637 0.0 0.056877750852409356 -0.015593825809920322 0.0 0.3393029704604885 0.0240266694303232 0.0 0.6863733906835134 -0.06827040717782878 0.0 0.5060140938597347 -0.05730719996999674 0.0 0.7854486328522365 -0.06753848129124282 0.0 0.26385683236600255 -0.036086263966616405 0.0 0.818278154950745 -0.08467592567869843 0.0 1.1653956738476328 -0.08954044777096269 0.0 1.0661532123978648 -0.08250279756961744 0.0 1.03951810033677 -0.07447488786082138 0.0 0.5908472800967 -0.06639142225328352 0.0 0.5031915597599537 -0.06076992115560481 0.0 0.3923638765113265 -0.052841355880796 0.0 0.3668909900660933 -0.04957072738756518 0.0 0.1456303383684662 -0.027657364533011708 0.0 0.7870989582494379 -0.08513106210690723 0.0 0.2615698699848961 0.014032038582347521 0.0 0.6083432740810161 0.03739219754661667 0.0 0.06861452703281137 0.005181459024711319 0.0 0.1735570555146139 0.017329477884910446 0.0 -0.06920087757396808 -0.0006483462609101784 0.0 1.3327055162579589 -0.024439605217923956 0.0 1.2179890559327808 0.04121563340615643 0.0 1.3549820961186478 -0.012081124541033779 0.0 1.326468813818825 -0.06262852029452766 0.0 0.17111884982458075 -0.030316917277755356 0.0 0.3607029908387609 -0.05043634486389771 0.0 0.5608223721168688 0.046615997580984475 0.0 0.08905078124120727 0.015525520767396233 0.0 1.3082179162616956 0.004025700741190246 0.0 1.347944483545678 -0.03290290154622838 0.0 0.5178548319861993 0.072273627226255 0.0 1.3268866141196123 -0.07579234651937278 0.0 0.5904521908259314 0.04294727359482832 0.0 1.283027053803615 0.07224218011525042 0.0 0.33506401730481766 0.03356532357032528 0.0 0.7061960172899551 0.06418334424680518 0.0 1.3348210999285166 0.02410688418808559 0.0 1.2311408556677905 -0.024147282332289965 0.0 1.317841799110495 -0.08556665489714571 0.0 0.8264512903479806 0.06136655362282965 0.0 1.0490082365050257 0.07941066439025979 0.0 1.1078994644546503 0.07250879342311707 0.0 1.2668339102737842 0.09982884664257659 0.0 1.1294519748663794 0.09882921041477952 0.0 0.9763867898894559 0.08204664408794762 0.0 0.671124407683947 0.06844371686984425 0.0 1.2743747248260213 -0.08890861339622684 0.0 0.0 0.0 0.0 1.3081053928877995 0.05804034836661403 0.0 0.9185269501354366 0.09144101992999705 0.0 0.3276337621441041 0.0434168325273696 0.0 1.3161042889554702 0.07211007819426958 0.0 0.9011778077462101 0.0868285494401013 0.0 1.271123925894385 0.09231801340315814 0.0 0.600467137874576 0.06805850249361929 0.0 1.261219563263306 0.10492893513628034 0.0 0.5506357756792477 0.07122498637248705 0.0 0.2577397611411007 0.04298243672088375 0.0 1.1470157745100278 0.10332995225289883 0.0 0.6633608186625092 0.07713636872228163 0.0 1.0724108099014524 0.10538110525794091 0.0 0.8457978204595707 0.09299928766087899 0.0 0.7759335253780202 0.09147032640317179 0.0 1.1964896361772266 0.0896091402155473 0.0 1.1171889492468392 0.09305659994962497 0.0 1.3062523864723605 0.08264340365737269 0.0 0.15767266095329405 0.03085736198092629 0.0 1.1509216993088194 0.07944529062173801 0.0 1.2156679895157099 0.10801407948066517 0.0 1.1563284702624133 0.10904042875551448 0.0 1.2305210702019438 0.10643488788055841 0.0 1.2413091361138477 0.10853899013086617 0.0 1.290831312137073 0.087976510707075 0.0 1.182906168380643 0.0689523797574506 0.0 0.9426357638632737 0.10281299358487013 0.0 1.2274193695124045 0.09261183862972037 0.0 1.278281196266764 0.09158032997785054 0.0 1.0442141326017365 0.06569731349556568 0.0 1.1595968364006048 0.10986286042670552 0.0 1.0750989112587264 0.10749075849617679 0.0 1.0582015869478096 0.10769754574083823 0.0 1.230074541251806 0.09616784531599053 0.0 0.0 0.0 0.0 0.6445080199179514 -0.005746466614756342 0.0 1.0777416805461386 0.43413049552883864 0.0 1.1667883068310914 0.4221416551271733 0.0 1.0823753840422181 -0.42685835552244983 0.0 0.8656871493601234 -0.22705378655294764 0.0 0.9789992524360128 -0.2555296112084733 0.0 0.8923811337321248 -0.08505835186708204 0.0 1.223068252058642 -0.05227767562138555 0.0 1.08189990076401 -0.0639614528337996 0.0 1.1988758693859924 -0.10438181905205082 0.0 1.2651547396010783 -0.08451033263850971 0.0 1.3152535426832066 -0.05367918978634744 0.0 -0.08405023408125052 -0.002778180662663876 0.0 -0.050221050776647055 0.006897660059288615 0.0 0.0015436281427630885 0.009145352582030168 0.0 0.001292500186635671 0.01131738975853932 0.0 0.1493800010299635 0.02634318095717003 0.0 -0.057657023565547555 0.007735225721469922 0.0 0.06269048397992122 0.02150429028462849 0.0 0.22071446576208484 0.03716157183808284 0.0 0.08667297696786772 0.03843895532430549 0.0 -0.036599045990410424 0.014862940640852683 0.0 1.0347038945821716 0.16078801983592278 0.0 -0.06867869525006404 0.004482670995479717 0.0 1.255190953195186 -0.09888692590475945 0.0 1.1416378926097954 -0.09621753393880637 0.0 0.9503311573716321 -0.09003652158845626 0.0 1.1045290834515271 -0.09986339349353426 0.0 1.2426409591255483 -0.1065002038036441 0.0 0.9140279977081895 -0.09261131783911514 0.0 1.2494664011649188 -0.10576912577431569 0.0 1.0798049384732533 -0.10297579116968363 0.0 1.1344028237420598 -0.10289074621030146 0.0 0.8677170659390187 -0.09294355031419464 0.0 0.9100125978905181 -0.09489861708086104 0.0 0.6298571738692247 -0.07426857579703261 0.0 1.1076031755568168 -0.106384112797918 0.0 1.2370457901711929 -0.10740531612420204 0.0 1.0735724039492267 -0.10521890773779258 0.0 1.1698982353760248 -0.08604087948402389 0.0 1.196951854771471 -0.10883040536690958 0.0 0.6888359530397922 -0.08026695401406785 0.0 1.1459781375527722 -0.10718029674648119 0.0 0.945377422513696 -0.098