<?xml version="1.0"?>
<VTKFile type="UnstructuredGrid"  version="0.1"  >
<UnstructuredGrid>
<Piece  NumberOfPoints="1289" NumberOfCells="2413">
<Points>
<DataArray  type="Float64"  NumberOfComponents="3"  format="ascii">0 0 0  0 0.41 0  2.2 0.41 0  2.2 0 0  0.1 0.1 0  0.1 0.3 0  0.8 0.3 0  0.8 0.1 0  0.25 0.2 0  0.248976 0.210065 0  0.245948 0.219718 0  0.241038 0.228563 0  0.234448 0.23624 0  0.226448 0.242432 0  0.217365 0.246888 0  0.207571 0.249423 0  0.197468 0.249936 0  0.187467 0.248404 0  0.17798 0.24489 0  0.169395 0.239539 0  0.162062 0.232569 0  0.156283 0.224265 0  0.152293 0.214968 0  0.150257 0.205058 0  0.150257 0.194942 0  0.152293 0.185032 0  0.156283 0.175735 0  0.162062 0.167431 0  0.169395 0.160461 0  0.17798 0.15511 0  0.187467 0.151596 0  0.197468 0.150064 0  0.207571 0.150577 0  0.217365 0.153112 0  0.226448 0.157568 0  0.234448 0.16376 0  0.241038 0.171437 0  0.245948 0.180282 0  0.248976 0.189935 0  1.1 0 0  1.1 0.41 0  0.1 0.2 0  0.45 0.1 0  0.45 0.3 0  0.55 0 0  0.275 0.1 0  0.275 0.3 0  0.275 0 0  0.55 0.41 0  0 0.205 0  0.825 0 0  0.825 0.41 0  0.275 0.41 0  0.1 0.15 0  0.1875 0.1 0  0.1 0.25 0  0.1875 0.3 0  0.132322 0.2 0  0.241426 0.253518 0  0.241426 0.146482 0  0.264574 0.17974 0  0.264574 0.22026 0  0.138434 0.187348 0  0.153372 0.150948 0  0.148413 0.164094 0  0.176495 0.136535 0  0.22768 0.143571 0  0.138434 0.212652 0  0.148413 0.235906 0  0.176495 0.263465 0  0.22768 0.256429 0  0.23125 0.3 0  0.24769 0.24094 0  0.23125 0.1 0  0.24769 0.15906 0  0.26253 0.193641 0  0.190482 0.137872 0  0.166753 0.146661 0  0.157737 0.244461 0  0.190482 0.262128 0  0.203107 0.261264 0  0.253635 0.22977 0  0.203107 0.138736 0  0.253635 0.17023 0  0.261028 0.206206 0  0.167707 0.251809 0  0.143629 0.224191 0  0.215302 0.2591 0  0.270465 0.245894 0  0.215302 0.1409 0  0.270465 0.154106 0  0.284052 0.202587 0  0.14375 0.3 0  0.209375 0.3 0  0.225966 0.278501 0  0.209375 0.1 0  0.225966 0.121499 0  0.211613 0.273759 0  0.211613 0.126241 0  0.143629 0.175809 0  0.1 0.175 0  0.133484 0.164832 0  0.144491 0.249539 0  0.1 0.225 0  0.133484 0.235168 0  0.3625 0.3 0  0.25691 0.253381 0  0.25691 0.146619 0  0.277205 0.188698 0  0.184724 0.275712 0  0.237372 0.268285 0  0.184724 0.124288 0  0.237372 0.131715 0  0.197578 0.273149 0  0.193656 0.286994 0  0.197578 0.126851 0  0.193656 0.113006 0  0.122953 0.187671 0  0.118362 0.153758 0  0.155372 0.258107 0  0.122953 0.212329 0  0.118362 0.246242 0  0.276394 0.27264 0  0.276394 0.12736 0  0.280965 0.170013 0  0.253125 0.3 0  0.14375 0.1 0  0.253125 0.1 0  0.269489 0.26014 0  0.269489 0.13986 0  0.303639 0.184297 0  0.165625 0.3 0  0.134742 0.273113 0  0.257831 0.274737 0  0.255279 0.128499 0  0.3625 0.1 0  0.165625 0.1 0  0.162031 0.132368 0  0.134955 0.126405 0  0.149334 0.125568 0  0.142936 0.139597 0  0.12695 0.140259 0  0.242514 0.285501 0  0.242514 0.114499 0  0.1 0.125 0  0.117483 0.12555 0  0.11154 0.139776 0  0.121875 0.1 0  0.109143 0.1125 0  0.126805 0.114 0  0.220313 0.29129 0  0.351562 0.287369 0  0.207222 0.2866 0  0.220312 0.10871 0  0.1375 0 0  0.20625 0 0  0.207222 0.1134 0  0.11722 0.17118 0  0.1 0.1625 0  0.0778409 0.16875 0  0.0862762 0.15625 0  0 0.15375 0  0 0.1025 0  0.11722 0.22882 0  0.1 0.2375 0  0 0.3075 0  0.0862762 0.23125 0  0.0598995 0.222547 0  0.0860223 0.2125 0  0.289584 0.181469 0  0.300267 0.16446 0  0.163832 0.269071 0  0.149597 0.273325 0  0.1 0.275 0  0.268498 0.285953 0  0.31875 0.3 0  0.294154 0.254672 0  0.296875 0.3 0  0.293558 0.271845 0  0.285095 0.286799 0  0.324298 0.264316 0  0.307866 0.263745 0  0.317093 0.234901 0  0.315485 0.281219 0  0.316547 0.250625 0  0.344693 0.243731 0  0.331592 0.251147 0  0.35129 0.270663 0  0.338689 0.263683 0  0.340625 0.3 0  0.249849 0.264383 0  0.265097 0.11422 0  0.284688 0.156136 0  0.242188 0.324017 0  0.0856613 0.2625 0  0.132812 0.0612217 0  0.264062 0.0612217 0  0.198437 0.07598340000000001 0  0.0860223 0.1375 0  0.0794526 0.191089 0  0.285228 0.140397 0  0.298655 0.148737 0  0.31875 0.1 0  0.327335 0.15374 0  0.296875 0.1 0  0.312289 0.155283 0  0.313348 0.135607 0  0.321802 0.173916 0  0.298433 0.134116 0  0.112124 0.2625 0  0.127526 0.259083 0  0.121875 0.3 0  0.0682687 0.241503 0  0.1 0.2875 0  0.117762 0.28125 0  0.107813 0.3 0  0.103906 0.313849 0  0.0778409 0.28125 0  0.1375 0.41 0  0.0862762 0.29375 0  0.08886860000000001 0.24375 0  0.307812 0.338778 0  0.307812 0.292227 0  0.33216 0.279164 0  0.387888 0.266414 0  0.264063 0.31948 0  0.110937 0.07598340000000001 0  0.242188 0.07598340000000001 0  0.319914 0.11839 0  0.340625 0.1 0  0.334448 0.133793 0  0.329687 0.108539 0  0.346259 0.118491 0  0.360334 0.173636 0  0.327539 0.205033 0  0.132812 0.288712 0  0.362436 0.278836 0  0.368105 0.259418 0  0.4125 0.41 0  0.329687 0.324017 0  0.329687 0.292306 0  0.285938 0.318952 0  0.417187 0.338778 0  0.324481 0.14148 0  0.351562 0.106771 0  0.40625 0.1 0  0.341028 0.168342 0  0.319221 0.190479 0  0.335292 0.184501 0  0.305563 0.20794 0  0.220313 0.31948 0  0.132812 0.332772 0  0.0865876 0.311259 0  0.0598995 0.302453 0  0.0906541 0.343255 0  0.353543 0.255837 0  0.36574 0.237633 0  0.405007 0.254279 0  0.275795 0.352123 0  0.4125 0 0  0.35493 0.137394 0  0.366563 0.120618 0  0.35917 0.205246 0  0.198438 0.318952 0  0.0626109 0.263892 0  0.40625 0.3 0  0.354809 0.155936 0  0.386512 0.146872 0  0.373101 0.159939 0  0.384375 0.1 0  0.343394 0.19929 0  0.350682 0.185683 0  0.368101 0.189748 0  0.344016 0.221511 0  0.391108 0.213329 0  0.376279 0.204783 0  0.398843 0.182768 0  0.375804 0.222746 0  0.390665 0.196958 0  0.394004 0.23518 0  0.359883 0.222828 0  0.419908 0.204359 0  0.404243 0.204783 0  0.412615 0.224526 0  0.20625 0.41 0  0.165625 0.325257 0  0.0347982 0.244954 0  0.379558 0.247154 0  0.34165 0.147603 0  0.372264 0.136992 0  0.388988 0.121989 0  0.373437 0.108554 0  0.351562 0.31948 0  0.391367 0.16527 0  0.399572 0.223324 0  0.452011 0.227371 0  0.40877 0.239392 0  0.431491 0.237337 0  0.421224 0.250459 0  0.449619 0.262098 0  0.418865 0.276779 0  0.437063 0.252274 0  0.415673 0.263227 0  0.430988 0.266772 0  0.402767 0.273419 0  0.452967 0.244883 0  0.428125 0.3 0  0.408502 0.286186 0  0.384375 0.3 0  0.392267 0.285807 0  0.465927 0.219339 0  0.43489 0.283846 0  0.376424 0.286289 0  0.625 0.3 0  0.473533 0.205186 0  0.461713 0.255517 0  0.5375 0.3 0  0.465725 0.235405 0  0.44631 0.201425 0  0.471875 0.3 0  0.494307 0.227729 0  0.459448 0.206736 0  0.462294 0.180792 0  0.478933 0.227536 0  0.486793 0.21381 0  0.486322 0.251373 0  0.50065 0.215318 0  0.54005 0.175389 0  0.474633 0.189893 0  0.512916 0.208697 0  0.49531 0.199967 0  0.475889 0.175275 0  0.625 0.1 0  0.459311 0.153933 0  0.513645 0.242704 0  0.392892 0.248539 0  0.374815 0.271913 0  0.365974 0.14871 0  0.395312 0.109184 0  0.417061 0.123981 0  0.483196 0.277003 0  0.381967 0.179632 0  0.429898 0.219374 0  0.433473 0.206165 0  0.43149 0.181038 0  0.444208 0.215487 0  0.472985 0.247309 0  0.49375 0.3 0  0.475579 0.262714 0  0.49916 0.274293 0  0.501175 0.184809 0  0.514164 0.225681 0  0.543648 0.214977 0  0.5341630000000001 0.23481 0  0.527396 0.216171 0  0.5375 0.1 0  0.534548 0.202315 0  0.561545 0.192513 0  0.5494289999999999 0.201221 0  0.570923 0.218346 0  0.412582 0.149833 0  0.489327 0.264745 0  0.502439 0.254775 0  0.462391 0.271166 0  0.496775 0.241732 0  0.5294410000000001 0.268606 0  0.482812 0.291099 0  0.46879 0.285038 0  0.452663 0.284065 0  0.51789 0.257882 0  0.53408 0.252026 0  0.560142 0.243543 0  0.545708 0.243474 0  0.547532 0.229019 0  0.55282 0.265323 0  0.398971 0.153424 0  0.400349 0.135684 0  0.410135 0.168145 0  0.428823 0.161323 0  0.415266 0.183779 0  0.329687 0.0810483 0  0.395312 0.0612217 0  0.373437 0.318952 0  0.439062 0.324017 0  0.561816 0.229354 0  0.585029 0.239287 0  0.431827 0.139854 0  0.446796 0.168929 0  0.351562 0.07598340000000001 0  0.395313 0.318944 0  0.54337 0.150762 0  0.460937 0.31948 0  0.418412 0.137529 0  0.428125 0.1 0  0.442783 0.152332 0  0.450742 0.134294 0  0.373437 0.0805201 0  0.384383 0.342558 0  0.482812 0.318952 0  0.429239 0.127457 0  0.444274 0.117405 0  0.426548 0.113815 0  0.49375 0.1 0  0.488954 0.113984 0  0.457973 0.121842 0  0.471621 0.137346 0  0.515625 0.325257 0  0.48125 0.41 0  0.417187 0.07598340000000001 0  0.496363 0.126778 0  0.479043 0.155715 0  0.439062 0.0805201 0  0.481795 0.126919 0  0.471875 0.1 0  0.489227 0.142159 0  0.515625 0.1 0  0.520062 0.147117 0  0.501244 0.161791 0  0.505431 0.112984 0  0.505344 0.14029 0  0.526563 0.119081 0  0.5181750000000001 0.131908 0  0.539868 0.136937 0  0.460937 0.108383 0  0.474242 0.114415 0  0.460937 0.0810483 0  0.487841 0.167168 0  0.526563 0.0612217 0  0.526563 0.106406 0  0.537619 0.112743 0  0.58125 0.1 0  0.559375 0.1 0  0.482812 0.08105569999999999 0  0.471883 0.0587655 0  0.570312 0.129396 0  0.548437 0.07598340000000001 0  0.504687 0.08105569999999999 0  0.49375 0.0470127 0  0.570312 0.112663 0  0.592798 0.12103 0  0.553986 0.12103 0  0.570312 0.0805201 0  0.48125 0 0  0.114787 0.2 0  0.160769 0.284765 0  0.175816 0.288361 0  0.162602 0.116048 0  0.154687 0.07598340000000001 0  0.176562 0.0805201 0  0.0598995 0.147547 0  0.307812 0.109924 0  0.291279 0.117157 0  0.278491 0.112989 0  0.285937 0.07598340000000001 0  0.307812 0.0805201 0  0.296928 0.196743 0  0.318141 0.218507 0  0.330208 0.227509 0  0.301397 0.225668 0  0.302706 0.241401 0  0.292574 0.21424 0  0.282762 0.230935 0  0.284351 0.244775 0  0.269553 0.23261 0  0.278572 0.217242 0  0.226924 0.342606 0  0.446928 0.185396 0  0.515625 0.3 0  0.504687 0.288879 0  0.515256 0.276534 0  0.529479 0.285328 0  0.58125 0.3 0  0.541969 0.272936 0  0.559375 0.3 0  0.556796 0.282529 0  0.543473 0.287206 0  0.581429 0.267774 0  0.566728 0.271171 0  0.570869 0.255585 0  0.577404 0.283865 0  0.603125 0.3 0  0.597531 0.28035 0  0.570312 0.338778 0  0.592188 0.292492 0  0.603513 0.256094 0  0.614063 0.286265 0  0.610329 0.27064 0  0.632708 0.251285 0  0.657223 0.261594 0  0.618789 0.257807 0  0.614188 0.22987 0  0.630935 0.265614 
[...]
<PointData  Vectors="v"> 
	<DataArray  type="Float64"  Name="v"  NumberOfComponents="3" format="ascii">
0.0 0.0 0.0 0.0 0.0 0.0 0.0 0.0 0.0 0.0 0.0 0.0 0.796221404103469 -0.19597251255985348 0.0 0.8404189371178885 0.20776268883546514 0.0 1.1697412933153946 -0.0639089173317609 0.0 1.1368025884014672 0.05136998082123188 0.0 0.0 0.0 0.0 0.0 0.0 0.0 0.0 0.0 0.0 0.0 0.0 0.0 0.0009017871260459196 0.0008669471567401406 0.0 0.0017639362705231846 0.002918022128080945 0.0 0.0009019879889617898 0.0015734374671266742 0.0 0.0 0.0 0.0 0.0 0.0 0.0 0.0 0.0 0.0 0.0 0.0 0.0 0.0 0.0 0.0 0.0 0.0 0.0 0.0 0.0 0.0 0.0 0.0 0.0 0.0 0.0 0.0 0.0 0.0 0.0 0.0 0.0 0.0 0.0 0.0 0.0 0.0 0.0 0.0 0.0 0.0 0.0 0.0 0.0 0.0 0.0 0.0 0.0 0.0 0.0 0.0 0.0 0.0 0.0 0.000131132761706081 -0.00023056085887642342 0.0 -0.0009006971814762252 0.0016961744047136202 0.0 0.0008212015489122145 -0.0007386661883959254 0.0 0.0 0.0 0.0 0.0 0.0 0.0 0.0 0.0 0.0 0.0 0.0 0.0 0.0 0.0 0.0 0.7613315947912852 -0.0012674908013037233 0.0 1.2760577581440946 0.08207951267878194 0.0 1.2657422227977835 -0.07810888646970407 0.0 0.0 0.0 0.0 1.3536265516190484 -0.13293616990328244 0.0 1.3581073774580654 0.15492175348084894 0.0 0.0 0.0 0.0 0.0 0.0 0.0 1.0 0.0 0.0 0.0 0.0 0.0 0.0 0.0 0.0 0.0 0.0 0.0 0.8425884162346376 -0.23187136601649552 0.0 1.1513925805014678 -0.34436418449391726 0.0 0.8637967672345047 0.22931436986731202 0.0 1.1662882733907725 0.3539693929616555 0.0 0.42823870240573264 -0.0039648672427774695 0.0 0.1668399593422483 0.0626121819771314 0.0 0.16867656347660373 -0.060347172223297156 0.0 -0.02836566469810263 -0.038615506613125634 0.0 -0.02645973015438479 0.03739310084800105 0.0 0.33437776173084627 -0.2798403434382365 0.0 0.8578802613411238 -0.6734677178182744 0.0 0.6399854099918927 -0.6881497839053788 0.0 1.206106731806858 -0.613315872671371 0.0 0.41711709518133017 -0.06881990815032545 0.0 0.3304545431081797 0.2687541207820697 0.0 0.6428601991419612 0.6693343999335692 0.0 1.1852571246338106 0.615346319208383 0.0 0.40683335062905857 0.07151491618277284 0.0 1.313120503352865 0.2608253475403714 0.0 0.3305003681725202 0.25670038314817856 0.0 1.302649653992268 -0.24046125965000115 0.0 0.3213298741060412 -0.2447736662742344 0.0 -0.03422981978742972 -0.016895315100384712 0.0 1.1247742795515898 -0.3987543080340751 0.0 1.0931631716887134 -0.7243395699767323 0.0 0.8521142663649457 0.770765674171753 0.0 1.131681565493734 0.3995564079004883 0.0 0.7598206402030464 0.18594213355939462 0.0 0.11004783748623029 0.052533152527514664 0.0 0.7691970994002812 -0.18194689554621063 0.0 0.11241741849396117 -0.050899603920749166 0.0 -0.03017507502932964 0.01990914281484924 0.0 1.027612276766014 0.7189107631294299 0.0 0.44239812047388255 0.5292084588617899 0.0 0.45770543762007315 0.17670096387390788 0.0 0.27756200224055694 0.07030240539436454 0.0 0.46462722642726184 -0.17449247031892573 0.0 0.28202966903263577 -0.06542529766765823 0.0 -0.07637692259732624 0.002873317794576478 0.0 0.965500390302869 0.31737012838798934 0.0 1.2605137300605866 0.3130105525528518 0.0 1.2452425276554768 0.28856276778715756 0.0 1.2348458808714273 -0.3077091323234347 0.0 1.2478472743503766 -0.28108684763089237 0.0 1.2204753876282362 0.33079685510083356 0.0 1.226051877563549 -0.3227419360634327 0.0 0.44288306585861903 -0.5445661937735881 0.0 0.8020149839236511 -0.1396104793946305 0.0 0.6715034664960219 -0.4196956799279487 0.0 0.877410823417353 0.593845547837693 0.0 0.7993147285687553 0.14282164319847993 0.0 0.6765150173448367 0.4201558040608705 0.0 1.2929919779363916 -0.007396472746909531 0.0 0.2966394182605312 0.14649120558950524 0.0 0.29661517527143355 -0.1366370452552702 0.0 -0.05548787331221705 -0.012464101900840635 0.0 1.2651763529756572 0.47169052065581046 0.0 0.7684697442084667 0.12052265807767565 0.0 1.2610848715847511 -0.4733347523552505 0.0 0.7893654724890071 -0.1154301056643985 0.0 1.2757845999809199 0.41789713435878595 0.0 1.2540458672931472 0.4009731052575082 0.0 1.2715251593113437 -0.41430835182630443 0.0 1.244684289305348 -0.3811728852921149 0.0 0.5835261095897519 -0.16051579573995003 0.0 0.7964262274734683 -0.3317968524356753 0.0 1.0104961302019633 0.6037851472257604 0.0 0.5917607106233331 0.15062063490894906 0.0 0.8125814259159134 0.33171193828537054 0.0 0.7462414345562048 0.08116793077159286 0.0 0.7829383803320739 -0.0733088938654694 0.0 0.05304209432859847 -0.021429920700713506 0.0 1.36321094666112 0.20739795237271577 0.0 0.9298047954573333 -0.3222325717298234 0.0 1.3445976425127768 -0.19006720747308728 0.0 0.41215005064125565 0.09196984630165146 0.0 0.4286437511658624 -0.07925625672758044 0.0 -0.05521731305048774 -0.0072778521393392324 0.0 1.0573861774876498 0.35392752145204903 0.0 0.9431940170971785 0.39145771372645 0.0 0.9219888697460656 0.11250596684529082 0.0 0.824425156579944 -0.08672212715125793 0.0 1.3066158374909074 0.01650114614705677 0.0 1.0274934618197091 -0.3452140093931789 0.0 1.074462684031245 -0.5703373325549559 0.0 0.9301142401617377 -0.38939361037706227 0.0 0.9974442219056731 -0.4386582586348402 0.0 0.9329111342313655 -0.5428258082391754 0.0 0.8655175000620321 -0.4064905400367798 0.0 1.2735770286499015 0.23276083918767418 0.0 1.2713001276498965 -0.2195570916538431 0.0 0.8526453340658895 -0.23561425709075137 0.0 0.8790360472208624 -0.30994275771680535 0.0 0.8528840422663743 -0.29903091757744604 0.0 0.8513930161040633 -0.2563960437014305 0.0 0.8541979954585565 -0.25276815626616156 0.0 0.8962570957587646 -0.3194616305704775 0.0 1.3291426067058634 0.31532861649863025 0.0 1.08509389333058 -0.002458430085064698 0.0 1.314620880373071 0.3621473359476513 0.0 1.321388562603345 -0.2961212005345101 0.0 0.0 0.0 0.0 0.0 0.0 0.0 1.2994353119094917 -0.3495277952134802 0.0 0.7142395790329972 -0.26730153601015866 0.0 0.8203859518132882 -0.21074403048856385 0.0 0.8711700471773185 -0.11072970009353567 0.0 0.862435949455889 -0.16374361697428405 0.0 0.9375 0.0 0.0 0.7500000000000001 0.0 0.0 0.7224880854460047 0.26532154550087594 0.0 0.8240512441210723 0.2001636290339233 0.0 0.7499999999999999 0.0 0.0 0.8697254424072592 0.127846072234707 0.0 0.9287161901777632 0.04286039702325851 0.0 0.8481170323772502 0.04509355987456653 0.0 -0.0355046500302789 -0.010795980390611288 0.0 0.09282640040050218 -0.016661691716792732 0.0 1.115089479035377 0.5547382454533025 0.0 1.0190631373272558 0.47312177566359215 0.0 0.8809881686815267 0.24548340547197833 0.0 1.2000024627556534 0.1391763258266332 0.0 1.3289591288283027 0.05989616339257139 0.0 0.3564898460654902 0.03862306317558844 0.0 1.3561113175452062 0.10299981245504441 0.0 0.715083262496879 0.054184775614979766 0.0 1.1711754615300431 0.10041768673477422 0.0 0.5173376302102262 0.016176433128027055 0.0 0.4990717935645414 0.030452788430517682 0.0 0.07229446805309896 0.013215126598627884 0.0 0.9571296656948229 0.03475100336173326 0.0 0.2609430581463593 0.02229447946787374 0.0 0.16630395775882947 0.008404477059679068 0.0 0.27122754516896613 0.014684109167181143 0.0 0.6686105889257856 -0.004698159085042038 0.0 0.501077197995696 0.007221394679824774 0.0 1.315904413569227 0.019289328742913937 0.0 0.542234121136806 0.06215454009299018 0.0 1.2302981604226928 -0.14214695185002355 0.0 0.2050125046918349 -0.037371631235330674 0.0 1.2056488322738035 0.1734722067380135 0.0 0.8828363466748153 0.17976037391640515 0.0 0.7011012323416066 -0.16795432284906361 0.0 1.115554757212904 -0.09420290245986918 0.0 1.0385357319363817 -0.22378235039105734 0.0 0.8637437009156524 -0.1826296378460679 0.0 0.8754208862470251 -0.02556755170930158 0.0 0.4418920900033947 -0.04844485232179808 0.0 0.2932034996540042 -0.03285058022006942 0.0 1.3289137063007768 -0.04187376955707751 0.0 0.21006205017556745 -0.012776615279959918 0.0 1.3555223500574962 -0.08634911848026858 0.0 0.19341036186592753 -0.01835417954857356 0.0 0.5371197991075795 -0.015587953551592504 0.0 -0.0013370513584301665 -0.010304255840200439 0.0 0.5737915992289092 -0.03157778888984124 0.0 0.8789154432986257 0.29716531308772526 0.0 0.879591616216444 0.41077831635076695 0.0 0.885112285478456 0.27032157475758595 0.0 0.9122261728705947 0.10987438874912434 0.0 0.865194115489842 0.22330013691140915 0.0 0.9047518481614788 0.3037179533358119 0.0 0.8572540616634415 0.2335195938564312 0.0 0.80203981672724 0.183377655546646 0.0 0.8670660839803257 0.16154630320671848 0.0 0.0 0.0 0.0 0.8415297596974055 0.1767045432606684 0.0 0.8706676519662198 0.17104732306002177 0.0 1.2130655948719768 0.049784989620859414 0.0 1.237682760131084 0.06510699696913833 0.0 0.8910971012114404 0.013409770149836922 0.0 0.5963450507702343 -0.026389164796047034 0.0 1.2797381611264806 0.1471060416302226 0.0 0.7176022129590878 -0.1737167439689048 0.0 1.1780151348748187 -0.16457944990333076 0.0 0.9990315322934885 -0.019670560025756734 0.0 1.3235095164990511 -0.00774645783555957 0.0 0.5866273661203432 9.64956269382113e-05 0.0 1.2205354714518606 -0.01247679595399828 0.0 0.9836990542837076 0.009308695376841852 0.0 -0.004027375612525642 -0.006583297040377749 0.0 -0.09639874153679381 0.0013654982557872134 0.0 0.9448866538382568 0.3412090043617824 0.0 0.878975162995754 -0.018468862664719744 0.0 0.4303043307018482 -0.008304447629746635 0.0 0.0 0.0 0.0 1.3286459717493826 0.03746750706759516 0.0 1.2127854999903145 0.025022887368982068 0.0 1.317108272437106 0.11463860468128505 0.0 1.2520122881738498 -0.044657818680672715 0.0 0.41525874262405077 -0.013420271817398952 0.0 1.2282621597980736 0.01046549498296788 0.0 1.2910548731738491 0.05626499584902287 0.0 0.041639379683526406 -0.00904610851301341 0.0 -0.08311358229610018 -0.004501779494104229 0.0 -0.06780399313291605 -0.006828772708769368 0.0 -0.08188116300264871 0.0032671458188307683 0.0 1.1857097224547768 0.21962394656294396 0.0 0.7774568090296434 0.1984490796562775 0.0 0.7779240932025748 0.15423354296340938 0.0 0.7857428482179137 0.10691876596836647 0.0 0.6205817297417184 0.11097895983086514 0.0 0.356055201901827 0.0014436707023582568 0.0 0.09564877189494007 0.003470465834283985 0.0 0.36713484610771296 -0.021635481214048506 0.0 1.0718509498920497 0.07671772710950556 0.0 0.0 0.0 0.0 0.5208137902729727 0.011671577691470987 0.0 0.932008000750651 0.029157886784976834 0.0 -0.10894481106230672 0.0004716065989595315 0.0 1.096973618456174 0.26691502724042515 0.0 0.9003401328312824 0.11241393580625098 0.0 1.2804849130455953 -0.05016823777090879 0.0 0.187741924597484 -0.0031181741811357154 0.0 0.35954049293534773 0.017672143313487033 0.0 0.14391217985381277 0.0003923785011096299 0.0 1.3027432319126222 0.038869967225303385 0.0 -0.1061512478775702 -0.0013613899773100614 0.0 -0.07742937960084915 -0.006105582628193676 0.0 -0.0973944568272342 -0.004559273462688846 0.0 -0.04245627367080674 0.006811648205594205 0.0 -0.09446165831385012 6.074216820156385e-05 0.0 -0.11516994202153394 -0.0004313433933058547 0.0 -0.06598297298104606 -0.0028885156173503483 0.0 -0.04003089394820971 0.002791399677973699 0.0 -0.11892189749188492 -0.0028230182106206425 0.0 0.07715368858610522 -0.00302862941255628 0.0 -0.037495168983023824 0.005306305690325485 0.0 -0.12191154134495386 -0.0031211462325283442 0.0 -0.12074330534723075 -0.0021306281982983494 0.0 -0.022418141943392735 -0.004177766304235769 0.0 0.0 0.0 0.0 0.9464146601024559 0.2553921081296975 0.0 0.9513535144557643 0.04011982081545841 0.0 0.2274085602428372 -0.0049282303951252845 0.0 0.3099948607917863 -0.003967140769084517 0.0 0.5449255764968268 0.020981306290991625 0.0 0.9122291977494388 0.0426479095424658 0.0 1.1918919748711454 0.03433275629911607 0.0 1.353751582421185 0.01452029761376979 0.0 0.08890780171317943 0.0018981950965807654 0.0 -0.03453093793888345 -0.001197846318876081 0.0 0.023517894926450195 -0.014689479859156779 0.0 0.13717968003379943 -0.01018991537724135 0.0 0.12687231317552597 -0.016046434880738206 0.0 0.31728742409782285 -0.024892420827681613 0.0 0.5762349248585125 -0.052855126219284926 0.0 0.8607299100572239 -0.05348990001998933 0.0 0.3681423461661228 -0.033788597777355156 0.0 0.5571409820702298 -0.037053329853170364 0.0 0.6520085603163356 -0.04924902281344655 0.0 0.7717734837264923 -0.04184805920406435 0.0 0.25988822422307634 -0.030841752882805357 0.0 1.272696734497237 -0.06540380971960785 0.0 1.0592981355634445 -0.05264468571243362 0.0 1.2867770485604135 -0.029533707661500423 0.0 1.0498303517555243 -0.04028068740524015 0.0 -0.042063472116337 -0.012293044654228353 0.0 1.0276611073661779 -0.06816073005047732 0.0 1.0608788002762826 -0.03042224435188106 0.0 1.2274804462595035 -0.10033708022497863 0.0 -0.10752572600961693 -0.005848304971710742 0.0 0.46085020373870045 -0.047972144428880814 0.0 1.2489965693860725 -0.10355190419187006 0.0 0.13188890410832124 -0.024858497819736987 0.0 -0.12075237816151788 -0.003778370341350527 0.0 1.260446462986263 -0.08778142023017654 0.0 0.06282395603199874 -0.02426403808070506 0.0 -0.11022928500504948 -0.00590151154551843 0.0 -0.02438312039568852 0.006936532333156509 0.0 0.04573597066019529 -0.021056157762093523 0.0 -0.06698346600897609 -0.011594367149473374 0.0 0.41778609905305386 -0.05131873742666365 0.0 -0.04727583724317217 -0.014041755197884443 0.0 0.11681503439382604 0.029828826514192996 0.0 -0.08052845439898394 0.002171001138212664 0.0 -0.07198868467097835 -0.009241232272625573 0.0 -0.09786670177775152 -0.0028795013947019005 0.0 0.041796118924818305 0.014035406228100521 0.0 1.2147455827541707 0.1044859627614991 0.0 0.3292125063878735 0.03510260467991858 0.0 0.30238449305398934 -0.04657828806066199 0.0 0.258103089526164 -0.011022649540168529 0.0 0.7099240525741343 -0.020859808653940128 0.0 0.3070776907045074 0.005892891904638207 0.0 1.1763714314638232 0.052424787720612494 0.0 0.8887328759228739 0.06007453306653377 0.0 0.9283102316160373 -0.08379612036745976 0.0 -0.04719462473278139 -0.004404749501872793 0.0 -0.057702914778886324 -0.006130270166396639 0.0 -0.11785086411036508 -0.0040436724261989476 0.0 -0.04442482506653342 0.0019276767778448661 0.0 -0.07846145481730092 -0.007184643652978198 0.0 0.3257908078867516 -0.04125142555219968 0.0 1.256565019193776 -0.09330823036271373 0.0 0.6258977857571469 -0.0635272175179276 0.0 0.8919879373070371 -0.0864947792385181 0.0 -0.026203200173771046 0.009824056603198498 0.0 0.059805000786757545 -0.02536622264833375 0.0 -0.008093192052393923 -0.015449924800524584 0.0 0.2055793766062307 -0.03944032275000611 0.0 -0.016795814530938466 -0.016459436429444647 0.0 1.255091444330667 0.10751557527407868 0.0 -0.06541200555826797 -0.0024871198633152993 0.0 -0.011833185094379473 0.012101238223640063 0.0 -0.04981703078967221 5.787468797069377e-05 0.0 0.05285518802646749 -0.01921732767750242 0.0 0.33790981628391314 0.02370132599991409 0.0 0.6870010449139909 -0.07156702505851682 0.0 0.505532902272422 -0.061411038273193504 0.0 0.7871827467878416 -0.06989667818335465 0.0 0.26338935233379474 -0.04096832701052043 0.0 0.8157077585237744 -0.08694329042980434 0.0 1.165163004826215 -0.09145294502348583 0.0 1.0669603016783042 -0.084590114741372 0.0 1.0408001691737208 -0.07626591272264702 0.0 0.5891763260158087 -0.07008145641307555 0.0 0.49979276201970146 -0.06439355239490506 0.0 0.3860608446992534 -0.05535469245433086 0.0 0.36215082874728705 -0.053389198110482955 0.0 0.1415347256738359 -0.03285051827767784 0.0 0.782040203667032 -0.08617705699588535 0.0 0.26035205885250806 0.014217293607990875 0.0 0.6069649094353455 0.03730943158379713 0.0 0.06789835650245825 0.004933017058657447 0.0 0.17262179606596184 0.01612889838554787 0.0 -0.06935957144793131 -0.0012167620086253235 0.0 1.3326888797753302 -0.02442141364725658 0.0 1.2180181823490785 0.04085133871936548 0.0 1.3551692108516153 -0.012336884042267186 0.0 1.3260356469378072 -0.06357253202035999 0.0 0.16583506032066528 -0.03420561766892405 0.0 0.3520172409845752 -0.050402009796760995 0.0 0.559088809835236 0.0454221998496394 0.0 0.08871059010600954 0.013125658646527715 0.0 1.3081155378957483 0.0039838170040662445 0.0 1.3481195615350847 -0.03336525217120479 0.0 0.5225465902361356 0.06905337825399044 0.0 1.3261501491015362 -0.07685220493470662 0.0 0.5888215655494131 0.04225704316342644 0.0 1.2824923363717013 0.07115012948442978 0.0 0.333827933485152 0.03167758234915704 0.0 0.7044905068250603 0.06213860235064387 0.0 1.3346381522758375 0.023911531587680283 0.0 1.231073693502323 -0.02444017799120664 0.0 1.3165274751051554 -0.08646517859292205 0.0 0.8248278950963577 0.06020818569243701 0.0 1.0477803230444056 0.07775488425233576 0.0 1.106729957056768 0.07133116954996242 0.0 1.2681642242036628 0.0984733063639332 0.0 1.1297739030250142 0.09671427845219153 0.0 0.9751335608682208 0.07994187011123957 0.0 0.6699172430693893 0.06553282637976567 0.0 1.2722441538270963 -0.08890888784527042 0.0 0.0 0.0 0.0 1.3081887673823285 0.05731384547675607 0.0 0.9186389487945575 0.0887103036814468 0.0 0.32757627577955045 0.039435695049556456 0.0 1.316340871509551 0.07107188876068146 0.0 0.9005250698565305 0.08408577959606729 0.0 1.2715805112256673 0.09074033743870415 0.0 0.6002134430291984 0.06443432483196276 0.0 1.2635466373713182 0.10431295069917414 0.0 0.5528748222757107 0.06728670331705894 0.0 0.25912828685984124 0.03786679370856551 0.0 1.1483550812625962 0.10157711005136152 0.0 0.6641017035192367 0.07351136037758034 0.0 1.0748894470720316 0.10411329480853783 0.0 0.8474390019328719 0.09036699473126722 0.0 0.7797233686030743 0.08955362308525029 0.0 1.1961079727411656 0.08775502586233871 0.0 1.1168620569208443 0.09091748240029095 0.0 1.306985629866788 0.08148976765301956 0.0 0.15846898302231488 0.02591667942687277 0.0 1.1527535824668202 0.07995020458550492 0.0 1.2183796394443662 0.10752056592987018 0.0 1.1596419436628398 0.10888779794828654 0.0 1.2343226707641215 0.10960969598600462 0.0 1.245134769224105 0.1103222574108759 0.0 1.2922288061172527 0.08702123057926703 0.0 1.1839409342716565 0.06846077529970465 0.0 0.9488581408001299 0.10415862330624558 0.0 1.229771583368595 0.0939786738457198 0.0 1.2801900099041748 0.09111738571736908 0.0 1.04572454565195 0.06557594609478042 0.0 1.164461467861885 0.11217567750710147 0.0 1.0815942410119788 0.11140658954414344 0.0 1.0627340722762764 0.1081663983477361 0.0 1.2325592424124021 0.09863252169288371 0.0 0.0 0.0 0.0 0.6445103556958058 -0.005574782954315361 0.0 1.0778785255945265 0.43417830662017354 0.0 1.1669510980425797 0.4221505801622019 0.0 1.0822336106808816 -0.42680048080140387 0.0 0.8655883992440994 -0.22703201079841281 0.0 0.9788822808450116 -0.25553798059179894 0.0 0.8923661738702957 -0.08496938245229868 0.0 1.2229944696158292 -0.05219653660728968 0.0 1.0818043969604014 -0.06397271404436751 0.0 1.1987375191941798 -0.10449677173690039 0.0 1.2652160728293138 -0.08457476741093067 0.0 1.315313695639136 -0.05367459456069957 0.0 -0.08439262991124138 -0.001955233381499778 0.0 -0.04988420655820261 0.007632216569670475 0.0 0.002365587937339127 0.009840650870491375 0.0 0.0017073037511794217 0.011944357203790626 0.0 0.1504052465139579 0.026739644856810435 0.0 -0.057694937516997426 0.00845903888310781 0.0 0.06307865405428796 0.022082691036584064 0.0 0.22148780807778173 0.037550608388343794 0.0 0.08684518139640593 0.03891620062061483 0.0 -0.03662975386025264 0.015569685058242341 0.0 1.0347362153388961 0.16070089482133187 0.0 -0.06856584100795549 0.0018102945033567357 0.0 1.2529184829824116 -0.09949398019073878 0.0 1.1404258933019051 -0.0978934895602448 0.0 0.9489204640810455 -0.09215733585734338 0.0 1.1017714471091316 -0.1007269387490565 0.0 1.2385505943087667 -0.1032088520587439 0.0 0.9102761880717559 -0.09369793703429678 0.0 1.2454771385467116 -0.10385159206928928 0.0 1.0750923839077806 -0.10205206901379928 0.0 1.1306821459717429 -0.10265417722846848 0.0 0.8600818697257405 -0.09070995030433635 0.0 0.9039763365556367 -0.09391422657986043 0.0 0.6224942456868915 -0.07446604470327664 0.0 1.101814779118253 -0.10367195675578321 0.0 1.2332580874978143 -0.10284429833776815 0.0 1.0666725970411723 -0.10084885860577616 0.0 1.1685157301240825 -0.08399523374475573 0.0 1.1919160325093747 -0.1046376108258555 0.0 0.6786017631221402 -0.07629655360806863 0.0 1.1402418125333258 -0.10160100740194909 0.0 0.9366337568698393 -0.093563041860