<?xml version="1.0"?>
<VTKFile type="UnstructuredGrid"  version="0.1"  >
<UnstructuredGrid>
<Piece  NumberOfPoints="1289" NumberOfCells="2413">
<Points>
<DataArray  type="Float64"  NumberOfComponents="3"  format="ascii">0 0 0  0 0.41 0  2.2 0.41 0  2.2 0 0  0.1 0.1 0  0.1 0.3 0  0.8 0.3 0  0.8 0.1 0  0.25 0.2 0  0.248976 0.210065 0  0.245948 0.219718 0  0.241038 0.228563 0  0.234448 0.23624 0  0.226448 0.242432 0  0.217365 0.246888 0  0.207571 0.249423 0  0.197468 0.249936 0  0.187467 0.248404 0  0.17798 0.24489 0  0.169395 0.239539 0  0.162062 0.232569 0  0.156283 0.224265 0  0.152293 0.214968 0  0.150257 0.205058 0  0.150257 0.194942 0  0.152293 0.185032 0  0.156283 0.175735 0  0.162062 0.167431 0  0.169395 0.160461 0  0.17798 0.15511 0  0.187467 0.151596 0  0.197468 0.150064 0  0.207571 0.150577 0  0.217365 0.153112 0  0.226448 0.157568 0  0.234448 0.16376 0  0.241038 0.171437 0  0.245948 0.180282 0  0.248976 0.189935 0  1.1 0 0  1.1 0.41 0  0.1 0.2 0  0.45 0.1 0  0.45 0.3 0  0.55 0 0  0.275 0.1 0  0.275 0.3 0  0.275 0 0  0.55 0.41 0  0 0.205 0  0.825 0 0  0.825 0.41 0  0.275 0.41 0  0.1 0.15 0  0.1875 0.1 0  0.1 0.25 0  0.1875 0.3 0  0.132322 0.2 0  0.241426 0.253518 0  0.241426 0.146482 0  0.264574 0.17974 0  0.264574 0.22026 0  0.138434 0.187348 0  0.153372 0.150948 0  0.148413 0.164094 0  0.176495 0.136535 0  0.22768 0.143571 0  0.138434 0.212652 0  0.148413 0.235906 0  0.176495 0.263465 0  0.22768 0.256429 0  0.23125 0.3 0  0.24769 0.24094 0  0.23125 0.1 0  0.24769 0.15906 0  0.26253 0.193641 0  0.190482 0.137872 0  0.166753 0.146661 0  0.157737 0.244461 0  0.190482 0.262128 0  0.203107 0.261264 0  0.253635 0.22977 0  0.203107 0.138736 0  0.253635 0.17023 0  0.261028 0.206206 0  0.167707 0.251809 0  0.143629 0.224191 0  0.215302 0.2591 0  0.270465 0.245894 0  0.215302 0.1409 0  0.270465 0.154106 0  0.284052 0.202587 0  0.14375 0.3 0  0.209375 0.3 0  0.225966 0.278501 0  0.209375 0.1 0  0.225966 0.121499 0  0.211613 0.273759 0  0.211613 0.126241 0  0.143629 0.175809 0  0.1 0.175 0  0.133484 0.164832 0  0.144491 0.249539 0  0.1 0.225 0  0.133484 0.235168 0  0.3625 0.3 0  0.25691 0.253381 0  0.25691 0.146619 0  0.277205 0.188698 0  0.184724 0.275712 0  0.237372 0.268285 0  0.184724 0.124288 0  0.237372 0.131715 0  0.197578 0.273149 0  0.193656 0.286994 0  0.197578 0.126851 0  0.193656 0.113006 0  0.122953 0.187671 0  0.118362 0.153758 0  0.155372 0.258107 0  0.122953 0.212329 0  0.118362 0.246242 0  0.276394 0.27264 0  0.276394 0.12736 0  0.280965 0.170013 0  0.253125 0.3 0  0.14375 0.1 0  0.253125 0.1 0  0.269489 0.26014 0  0.269489 0.13986 0  0.303639 0.184297 0  0.165625 0.3 0  0.134742 0.273113 0  0.257831 0.274737 0  0.255279 0.128499 0  0.3625 0.1 0  0.165625 0.1 0  0.162031 0.132368 0  0.134955 0.126405 0  0.149334 0.125568 0  0.142936 0.139597 0  0.12695 0.140259 0  0.242514 0.285501 0  0.242514 0.114499 0  0.1 0.125 0  0.117483 0.12555 0  0.11154 0.139776 0  0.121875 0.1 0  0.109143 0.1125 0  0.126805 0.114 0  0.220313 0.29129 0  0.351562 0.287369 0  0.207222 0.2866 0  0.220312 0.10871 0  0.1375 0 0  0.20625 0 0  0.207222 0.1134 0  0.11722 0.17118 0  0.1 0.1625 0  0.0778409 0.16875 0  0.0862762 0.15625 0  0 0.15375 0  0 0.1025 0  0.11722 0.22882 0  0.1 0.2375 0  0 0.3075 0  0.0862762 0.23125 0  0.0598995 0.222547 0  0.0860223 0.2125 0  0.289584 0.181469 0  0.300267 0.16446 0  0.163832 0.269071 0  0.149597 0.273325 0  0.1 0.275 0  0.268498 0.285953 0  0.31875 0.3 0  0.294154 0.254672 0  0.296875 0.3 0  0.293558 0.271845 0  0.285095 0.286799 0  0.324298 0.264316 0  0.307866 0.263745 0  0.317093 0.234901 0  0.315485 0.281219 0  0.316547 0.250625 0  0.344693 0.243731 0  0.331592 0.251147 0  0.35129 0.270663 0  0.338689 0.263683 0  0.340625 0.3 0  0.249849 0.264383 0  0.265097 0.11422 0  0.284688 0.156136 0  0.242188 0.324017 0  0.0856613 0.2625 0  0.132812 0.0612217 0  0.264062 0.0612217 0  0.198437 0.07598340000000001 0  0.0860223 0.1375 0  0.0794526 0.191089 0  0.285228 0.140397 0  0.298655 0.148737 0  0.31875 0.1 0  0.327335 0.15374 0  0.296875 0.1 0  0.312289 0.155283 0  0.313348 0.135607 0  0.321802 0.173916 0  0.298433 0.134116 0  0.112124 0.2625 0  0.127526 0.259083 0  0.121875 0.3 0  0.0682687 0.241503 0  0.1 0.2875 0  0.117762 0.28125 0  0.107813 0.3 0  0.103906 0.313849 0  0.0778409 0.28125 0  0.1375 0.41 0  0.0862762 0.29375 0  0.08886860000000001 0.24375 0  0.307812 0.338778 0  0.307812 0.292227 0  0.33216 0.279164 0  0.387888 0.266414 0  0.264063 0.31948 0  0.110937 0.07598340000000001 0  0.242188 0.07598340000000001 0  0.319914 0.11839 0  0.340625 0.1 0  0.334448 0.133793 0  0.329687 0.108539 0  0.346259 0.118491 0  0.360334 0.173636 0  0.327539 0.205033 0  0.132812 0.288712 0  0.362436 0.278836 0  0.368105 0.259418 0  0.4125 0.41 0  0.329687 0.324017 0  0.329687 0.292306 0  0.285938 0.318952 0  0.417187 0.338778 0  0.324481 0.14148 0  0.351562 0.106771 0  0.40625 0.1 0  0.341028 0.168342 0  0.319221 0.190479 0  0.335292 0.184501 0  0.305563 0.20794 0  0.220313 0.31948 0  0.132812 0.332772 0  0.0865876 0.311259 0  0.0598995 0.302453 0  0.0906541 0.343255 0  0.353543 0.255837 0  0.36574 0.237633 0  0.405007 0.254279 0  0.275795 0.352123 0  0.4125 0 0  0.35493 0.137394 0  0.366563 0.120618 0  0.35917 0.205246 0  0.198438 0.318952 0  0.0626109 0.263892 0  0.40625 0.3 0  0.354809 0.155936 0  0.386512 0.146872 0  0.373101 0.159939 0  0.384375 0.1 0  0.343394 0.19929 0  0.350682 0.185683 0  0.368101 0.189748 0  0.344016 0.221511 0  0.391108 0.213329 0  0.376279 0.204783 0  0.398843 0.182768 0  0.375804 0.222746 0  0.390665 0.196958 0  0.394004 0.23518 0  0.359883 0.222828 0  0.419908 0.204359 0  0.404243 0.204783 0  0.412615 0.224526 0  0.20625 0.41 0  0.165625 0.325257 0  0.0347982 0.244954 0  0.379558 0.247154 0  0.34165 0.147603 0  0.372264 0.136992 0  0.388988 0.121989 0  0.373437 0.108554 0  0.351562 0.31948 0  0.391367 0.16527 0  0.399572 0.223324 0  0.452011 0.227371 0  0.40877 0.239392 0  0.431491 0.237337 0  0.421224 0.250459 0  0.449619 0.262098 0  0.418865 0.276779 0  0.437063 0.252274 0  0.415673 0.263227 0  0.430988 0.266772 0  0.402767 0.273419 0  0.452967 0.244883 0  0.428125 0.3 0  0.408502 0.286186 0  0.384375 0.3 0  0.392267 0.285807 0  0.465927 0.219339 0  0.43489 0.283846 0  0.376424 0.286289 0  0.625 0.3 0  0.473533 0.205186 0  0.461713 0.255517 0  0.5375 0.3 0  0.465725 0.235405 0  0.44631 0.201425 0  0.471875 0.3 0  0.494307 0.227729 0  0.459448 0.206736 0  0.462294 0.180792 0  0.478933 0.227536 0  0.486793 0.21381 0  0.486322 0.251373 0  0.50065 0.215318 0  0.54005 0.175389 0  0.474633 0.189893 0  0.512916 0.208697 0  0.49531 0.199967 0  0.475889 0.175275 0  0.625 0.1 0  0.459311 0.153933 0  0.513645 0.242704 0  0.392892 0.248539 0  0.374815 0.271913 0  0.365974 0.14871 0  0.395312 0.109184 0  0.417061 0.123981 0  0.483196 0.277003 0  0.381967 0.179632 0  0.429898 0.219374 0  0.433473 0.206165 0  0.43149 0.181038 0  0.444208 0.215487 0  0.472985 0.247309 0  0.49375 0.3 0  0.475579 0.262714 0  0.49916 0.274293 0  0.501175 0.184809 0  0.514164 0.225681 0  0.543648 0.214977 0  0.5341630000000001 0.23481 0  0.527396 0.216171 0  0.5375 0.1 0  0.534548 0.202315 0  0.561545 0.192513 0  0.5494289999999999 0.201221 0  0.570923 0.218346 0  0.412582 0.149833 0  0.489327 0.264745 0  0.502439 0.254775 0  0.462391 0.271166 0  0.496775 0.241732 0  0.5294410000000001 0.268606 0  0.482812 0.291099 0  0.46879 0.285038 0  0.452663 0.284065 0  0.51789 0.257882 0  0.53408 0.252026 0  0.560142 0.243543 0  0.545708 0.243474 0  0.547532 0.229019 0  0.55282 0.265323 0  0.398971 0.153424 0  0.400349 0.135684 0  0.410135 0.168145 0  0.428823 0.161323 0  0.415266 0.183779 0  0.329687 0.0810483 0  0.395312 0.0612217 0  0.373437 0.318952 0  0.439062 0.324017 0  0.561816 0.229354 0  0.585029 0.239287 0  0.431827 0.139854 0  0.446796 0.168929 0  0.351562 0.07598340000000001 0  0.395313 0.318944 0  0.54337 0.150762 0  0.460937 0.31948 0  0.418412 0.137529 0  0.428125 0.1 0  0.442783 0.152332 0  0.450742 0.134294 0  0.373437 0.0805201 0  0.384383 0.342558 0  0.482812 0.318952 0  0.429239 0.127457 0  0.444274 0.117405 0  0.426548 0.113815 0  0.49375 0.1 0  0.488954 0.113984 0  0.457973 0.121842 0  0.471621 0.137346 0  0.515625 0.325257 0  0.48125 0.41 0  0.417187 0.07598340000000001 0  0.496363 0.126778 0  0.479043 0.155715 0  0.439062 0.0805201 0  0.481795 0.126919 0  0.471875 0.1 0  0.489227 0.142159 0  0.515625 0.1 0  0.520062 0.147117 0  0.501244 0.161791 0  0.505431 0.112984 0  0.505344 0.14029 0  0.526563 0.119081 0  0.5181750000000001 0.131908 0  0.539868 0.136937 0  0.460937 0.108383 0  0.474242 0.114415 0  0.460937 0.0810483 0  0.487841 0.167168 0  0.526563 0.0612217 0  0.526563 0.106406 0  0.537619 0.112743 0  0.58125 0.1 0  0.559375 0.1 0  0.482812 0.08105569999999999 0  0.471883 0.0587655 0  0.570312 0.129396 0  0.548437 0.07598340000000001 0  0.504687 0.08105569999999999 0  0.49375 0.0470127 0  0.570312 0.112663 0  0.592798 0.12103 0  0.553986 0.12103 0  0.570312 0.0805201 0  0.48125 0 0  0.114787 0.2 0  0.160769 0.284765 0  0.175816 0.288361 0  0.162602 0.116048 0  0.154687 0.07598340000000001 0  0.176562 0.0805201 0  0.0598995 0.147547 0  0.307812 0.109924 0  0.291279 0.117157 0  0.278491 0.112989 0  0.285937 0.07598340000000001 0  0.307812 0.0805201 0  0.296928 0.196743 0  0.318141 0.218507 0  0.330208 0.227509 0  0.301397 0.225668 0  0.302706 0.241401 0  0.292574 0.21424 0  0.282762 0.230935 0  0.284351 0.244775 0  0.269553 0.23261 0  0.278572 0.217242 0  0.226924 0.342606 0  0.446928 0.185396 0  0.515625 0.3 0  0.504687 0.288879 0  0.515256 0.276534 0  0.529479 0.285328 0  0.58125 0.3 0  0.541969 0.272936 0  0.559375 0.3 0  0.556796 0.282529 0  0.543473 0.287206 0  0.581429 0.267774 0  0.566728 0.271171 0  0.570869 0.255585 0  0.577404 0.283865 0  0.603125 0.3 0  0.597531 0.28035 0  0.570312 0.338778 0  0.592188 0.292492 0  0.603513 0.256094 0  0.614063 0.286265 0  0.610329 0.27064 0  0.632708 0.251285 0  0.657223 0.261594 0  0.618789 0.257807 0  0.614188 0.22987 0  0.630935 0.265614 
[...]
<PointData  Vectors="v"> 
	<DataArray  type="Float64"  Name="v"  NumberOfComponents="3" format="ascii">
0.0 0.0 0.0 0.0 0.0 0.0 0.0 0.0 0.0 0.0 0.0 0.0 0.7961989242294778 -0.19591934797217098 0.0 0.8404421430833973 0.20782237787925864 0.0 1.1752711316346012 -0.06380335389806399 0.0 1.1305535718437245 0.050694753707615746 0.0 0.0 0.0 0.0 0.0 0.0 0.0 0.0 0.0 0.0 0.0 0.0 0.0 0.0007831651052847397 0.0006610068871420398 0.0 -0.0032200139717209046 -0.005714637640477206 0.0 -0.0005428652483180183 -0.0009275612906726241 0.0 0.0 0.0 0.0 0.0 0.0 0.0 0.0 0.0 0.0 0.0 0.0 0.0 0.0 0.0 0.0 0.0 0.0 0.0 0.0 0.0 0.0 0.0 0.0 0.0 0.0 0.0 0.0 0.0 0.0 0.0 0.0 0.0 0.0 0.0 0.0 0.0 0.0 0.0 0.0 0.0 0.0 0.0 0.0 0.0 0.0 0.0 0.0 0.0 0.0 0.0 0.0 0.0 0.0 0.0 0.0016774771651885776 -0.002907607830483382 0.0 0.004434275239037554 -0.007545405327492695 0.0 0.0009413191571688135 -0.000953462119001183 0.0 0.0 0.0 0.0 0.0 0.0 0.0 0.0 0.0 0.0 0.0 0.0 0.0 0.0 0.0 0.0 0.7613316950369157 -0.0011693308913255482 0.0 1.2750318421431277 0.08223961686327734 0.0 1.2668159803777 -0.07797983330247989 0.0 0.0 0.0 0.0 1.3536188415036228 -0.1332180853479006 0.0 1.3581436628278518 0.15474976107933616 0.0 0.0 0.0 0.0 0.0 0.0 0.0 1.0 0.0 0.0 0.0 0.0 0.0 0.0 0.0 0.0 0.0 0.0 0.0 0.8425663590054064 -0.2317884755055331 0.0 1.1512590542866612 -0.344272421877185 0.0 0.863814702202735 0.22939907398146284 0.0 1.1664121351490915 0.354098290137671 0.0 0.4282399608135671 -0.003827688561299636 0.0 0.16303491813752422 0.06141472946513985 0.0 0.17254162180301774 -0.06189735731664226 0.0 -0.027909056363724948 -0.03855097350241603 0.0 -0.026371646956143475 0.03694790669219885 0.0 0.33435510770045407 -0.2796886552108008 0.0 0.857820618620109 -0.6733446110221117 0.0 0.6399295373519034 -0.6880201879468615 0.0 1.2060594185780185 -0.6132025992659186 0.0 0.41320229253541196 -0.07070387163843396 0.0 0.33047691740805835 0.26890543350511353 0.0 0.6429086996663008 0.6694654626735437 0.0 1.1852751809169717 0.6154642719837287 0.0 0.4102158836041534 0.06983697283991853 0.0 1.3133341941056125 0.2606368413538268 0.0 0.32804513893835163 0.25651391558336073 0.0 1.3024520631952006 -0.24074314982825626 0.0 0.3189100373049365 -0.24131213718099534 0.0 -0.03393990554346101 -0.016982107979764353 0.0 1.12490075985025 -0.39868323278429885 0.0 1.0931143928175429 -0.7242457845566022 0.0 0.8521621500379453 0.7708701738737744 0.0 1.1314971988271907 0.3996228718298328 0.0 0.7594499012390359 0.18618524257182026 0.0 0.10945681284727032 0.05229643752500323 0.0 0.7694744415880076 -0.1816948061731673 0.0 0.11215219093064055 -0.050338594068012596 0.0 -0.02994873020566739 0.019536294936581915 0.0 1.027627207539238 0.7189831858743416 0.0 0.44244652751242175 0.5293531831270852 0.0 0.45918937150876166 0.17883070073279947 0.0 0.2746592073723133 0.06972863685259446 0.0 0.4629304439183951 -0.17223319175511084 0.0 0.2809086106960363 -0.06526806398363227 0.0 -0.07591910207966958 0.00268470753697266 0.0 0.9655544987672878 0.3174636439002398 0.0 1.2607266600965568 0.3131390657023126 0.0 1.2456669535716 0.28875711845720287 0.0 1.2346292450196963 -0.3076333488588569 0.0 1.247286569221566 -0.2809963513134576 0.0 1.2205666753738633 0.33114268107496503 0.0 1.2258436851023167 -0.322426958606723 0.0 0.4428308704318339 -0.5444197707818004 0.0 0.8019999984598993 -0.1395137079289589 0.0 0.6714631592973975 -0.41955494475467237 0.0 0.877455750258752 0.5939636882410458 0.0 0.7993283595208589 0.14291799978091044 0.0 0.6765506580158225 0.420295596850298 0.0 1.2929821290531305 -0.007142764557555777 0.0 0.2947313997589814 0.14604828816559276 0.0 0.29667469508185645 -0.13560521061793518 0.0 -0.055010683189476065 -0.012641614798526908 0.0 1.2652137294707992 0.4718822549948604 0.0 0.7690597710207177 0.12018421001538836 0.0 1.261013585491586 -0.4731723136207973 0.0 0.7886083289497279 -0.11599929738275701 0.0 1.275827694189848 0.41816719305547206 0.0 1.2541804558432263 0.40115918577708604 0.0 1.2714198163297703 -0.41406234427076366 0.0 1.2445231210248924 -0.3810235853324533 0.0 0.5835090619928904 -0.16038146145242962 0.0 0.7963941753121462 -0.33168885988725777 0.0 1.010539977113625 0.6039019846695156 0.0 0.5917746398536458 0.15075509436799303 0.0 0.8126088695327957 0.33182139563784097 0.0 0.7462193492865933 0.08096690863808058 0.0 0.7827285139034967 -0.07326322691805756 0.0 0.053068905659209506 -0.021700903437589656 0.0 1.363509553443858 0.20727702930242717 0.0 0.9297484240201953 -0.3221475434351842 0.0 1.344382138194325 -0.19023782169409886 0.0 0.41054654556791403 0.09160722564449443 0.0 0.42852693634686173 -0.07891899599973151 0.0 -0.05489650954674955 -0.007533858803991887 0.0 1.0574609741828527 0.35404068274237194 0.0 0.9432326215019282 0.39156113558973277 0.0 0.9226696489895908 0.11215472810106994 0.0 0.8237056565749042 -0.08714318555005507 0.0 1.306692732471819 0.016786748018416776 0.0 1.0274072545178041 -0.34512298864443336 0.0 1.0744039847543598 -0.5702248411249916 0.0 0.9300667347015248 -0.38929558365411704 0.0 0.997386810592373 -0.4385530915342492 0.0 0.932856724845571 -0.5427140519124863 0.0 0.8654773301234538 -0.4063864618688208 0.0 1.2733766469009935 0.23266589829211318 0.0 1.271493731806875 -0.21979398706598946 0.0 0.8526211037106445 -0.23554588182003672 0.0 0.8790000283012045 -0.3098589352868236 0.0 0.8528535815015941 -0.29894334923228066 0.0 0.8513529087803337 -0.25632727527558824 0.0 0.8541671327169109 -0.25269968082537425 0.0 0.8962146034470099 -0.3193785769884597 0.0 1.3294916161169053 0.3154940941842054 0.0 1.0850497749646664 -0.00234994314813581 0.0 1.3148301434971519 0.36234010519798293 0.0 1.3210125137418798 -0.2960509537055868 0.0 0.0 0.0 0.0 0.0 0.0 0.0 1.2991899218923586 -0.34939577498844226 0.0 0.7142161515499348 -0.26718437264069594 0.0 0.8203663028361893 -0.2106555079953076 0.0 0.8711605339516975 -0.11066601155753618 0.0 0.862422808515171 -0.16367539526528938 0.0 0.9375 0.0 0.0 0.7500000000000001 0.0 0.0 0.7225077736928897 0.2654383641601462 0.0 0.8240677332504337 0.20025390003253604 0.0 0.7499999999999999 0.0 0.0 0.8697359101751102 0.12792170369012978 0.0 0.9287202092975443 0.04290122994501604 0.0 0.8481185518074645 0.04517137932509814 0.0 -0.03515377063900647 -0.011055433299133695 0.0 0.0926289720523911 -0.01702666189549321 0.0 1.1151331859452749 0.5548662926557293 0.0 1.0191105985141817 0.4732350756351971 0.0 0.8810099118211179 0.2455561985072836 0.0 1.2002891802729088 0.13898418177882543 0.0 1.3289754026438505 0.059836117981693034 0.0 0.35462324420837327 0.03823692376068428 0.0 1.3562411640894618 0.10285670344660215 0.0 0.7149323035547339 0.05391797036138654 0.0 1.1714796029271557 0.10022543104692272 0.0 0.5163244017922471 0.015934752350260088 0.0 0.497944272216192 0.030134622411049687 0.0 0.0712229683936611 0.01332454251488803 0.0 0.9572397355960784 0.03456416582274522 0.0 0.25929403866595785 0.022172759884997444 0.0 0.1652312411171755 0.008577611292011135 0.0 0.2698107035677121 0.014630287065611623 0.0 0.6679479177564984 -0.004682965929454799 0.0 0.5000514601519824 0.007101383994096876 0.0 1.3159321918082503 0.01934500336304196 0.0 0.5425017493965489 0.061618175870741865 0.0 1.229782823691178 -0.14232923787976864 0.0 0.20445632285298165 -0.03755561099175045 0.0 1.205825088842466 0.17346575433259329 0.0 0.882849315866246 0.17982292739566802 0.0 0.701058554018791 -0.16791199319051311 0.0 1.1155295985517888 -0.09433855772340605 0.0 1.0384135089489646 -0.22374559800196342 0.0 0.8637276424147712 -0.18257008847627648 0.0 0.8754184839302498 -0.025498858389419593 0.0 0.4411504279242408 -0.0485905290291547 0.0 0.2926557626204568 -0.03305023535412751 0.0 1.3289588468800917 -0.04188840039281246 0.0 0.20967897113928846 -0.013094520995311826 0.0 1.3553857327462309 -0.08646876173886572 0.0 0.19299376322743206 -0.018713164218961808 0.0 0.5366280143243545 -0.015814946027882554 0.0 -0.0013475679098098482 -0.010561284759276153 0.0 0.5730840538474579 -0.03178928562075458 0.0 0.8789413929888613 0.2972555055300513 0.0 0.8796258179777345 0.4108860663075517 0.0 0.8851484678767433 0.27040085233565747 0.0 0.9122327812920568 0.10992417134743614 0.0 0.8652162998151133 0.22336553821487704 0.0 0.9047836090141331 0.303804582565481 0.0 0.8572811972241641 0.23358657649311065 0.0 0.8020645069898705 0.1834322715804319 0.0 0.8670789217231316 0.16159352061317359 0.0 0.0 0.0 0.0 0.841545754187885 0.17675486918556985 0.0 0.8706801405297162 0.17112018263713039 0.0 1.2130613401834929 0.04971168668493565 0.0 1.2378673202094952 0.0649691694848747 0.0 0.8910026116508954 0.01328505343393512 0.0 0.5957288184528857 -0.025724466802877335 0.0 1.2798264561679187 0.14696287314004508 0.0 0.7175741036476283 -0.17366908284188293 0.0 1.177884365660502 -0.1646228674299652 0.0 0.9985614903164912 -0.019866329837625703 0.0 1.3235114220703308 -0.0076322250743422314 0.0 0.5862573944225915 -4.622557875001548e-05 0.0 1.2203317546493133 -0.012568177948848328 0.0 0.9835134303561487 0.009338989872718877 0.0 -0.004474650426168484 -0.006199121741112556 0.0 -0.09635444477187614 0.0014781319453303708 0.0 0.9449289521722274 0.341303941244651 0.0 0.8786592792008996 -0.018296138274571914 0.0 0.4293955863855587 -0.007956917370244503 0.0 0.0 0.0 0.0 1.3285899866437267 0.03746997640649133 0.0 1.2129196706428698 0.02498137606644139 0.0 1.3171866294263974 0.11452060834107387 0.0 1.2523696309183907 -0.04454137021553608 0.0 0.4147922763435554 -0.013711405300698056 0.0 1.2282122310169974 0.01065537189870371 0.0 1.2907922227791133 0.0568679399467287 0.0 0.04136218554173026 -0.009136136300462892 0.0 -0.08290331236343058 -0.004621900081284065 0.0 -0.06781606432527239 -0.0068348175997632885 0.0 -0.08168269303639866 0.003240098159816387 0.0 1.1858905412633485 0.2196057103958723 0.0 0.7774977110963271 0.19850893372455433 0.0 0.7779384827116393 0.15427678310544105 0.0 0.7857500680729274 0.10694467864574886 0.0 0.6205970160237282 0.11101046097777725 0.0 0.3549507202043236 0.0015725602151342973 0.0 0.09503774912950835 0.004144641162434405 0.0 0.36696339436065306 -0.020306711257267056 0.0 1.0719382213945512 0.07667884273558466 0.0 0.0 0.0 0.0 0.5205007676268738 0.011692080013920083 0.0 0.9319357407516541 0.02943381196850784 0.0 -0.10911357250416517 0.0011528736203739911 0.0 1.0971060921966864 0.26699268406899224 0.0 0.9003466280404127 0.11245171192939928 0.0 1.2807709054613265 -0.04962941817385562 0.0 0.18727840098491455 -0.0030674159325159247 0.0 0.3589473303921583 0.01844105687521798 0.0 0.14323848660605323 0.0009379195675177192 0.0 1.3027109597404545 0.03937824671747873 0.0 -0.10620326852417823 -0.0010689487036769484 0.0 -0.0776096093902639 -0.0058137134048717835 0.0 -0.09773024862488741 -0.0037574733097626763 0.0 -0.04282469020807717 0.007197454484800678 0.0 -0.09463804224194455 0.0016905380025224776 0.0 -0.11540958417585902 0.0007260509240476513 0.0 -0.06679516110738144 -0.0011559714845534475 0.0 -0.040224226093821334 0.003909561484604174 0.0 -0.11933120533835166 -0.0012440789997442024 0.0 0.07706835499488966 -0.0015716430063858254 0.0 -0.03784541655381725 0.0059941085630148905 0.0 -0.1222628617600256 -0.0006066137772474701 0.0 -0.12103864450016828 -5.8590040633602846e-05 0.0 -0.022236121944614134 -0.0019653889553461015 0.0 0.0 0.0 0.0 0.9464939641377753 0.2554725134505646 0.0 0.9513542141578895 0.04013595179905238 0.0 0.22681892534892462 -0.004103514221430448 0.0 0.30958264248425527 -0.004169579173749142 0.0 0.5446780246317044 0.021342975654489525 0.0 0.9122108747503468 0.04327601371118484 0.0 1.1918800613050324 0.0347551226094098 0.0 1.3536875319176063 0.01463767190860023 0.0 0.08794742234067379 0.0031053525411261352 0.0 -0.034531994301746936 0.0006243497362507202 0.0 0.02442364243593595 -0.012180068655645828 0.0 0.13739387395788052 -0.00838308323998152 0.0 0.12759722625138484 -0.013757553422581916 0.0 0.31767710358849893 -0.023139742844730558 0.0 0.5774006628297952 -0.05147504552555078 0.0 0.8607665223395881 -0.052548180515100656 0.0 0.36902599115524093 -0.031941860654619895 0.0 0.5570995809596244 -0.03576983525868941 0.0 0.6523742588688036 -0.04793707737527544 0.0 0.7714658161221198 -0.040999882529984724 0.0 0.2613698607945347 -0.028828840634399337 0.0 1.2733418027115957 -0.06494763803531811 0.0 1.059365054899161 -0.051928336683983695 0.0 1.286851131790749 -0.029109372587688084 0.0 1.049709046877535 -0.03970356676183057 0.0 -0.04132716999537381 -0.009911920761930532 0.0 1.0282624967213343 -0.06742458244047107 0.0 1.0607302333204223 -0.030028567614809563 0.0 1.2233628469740372 -0.10029491297938647 0.0 -0.10776930741258656 -0.0036901610739446407 0.0 0.46268382012465953 -0.04656236757663719 0.0 1.25004429568344 -0.1063147439559228 0.0 0.13352966487689996 -0.022836475998785757 0.0 -0.12121133335082912 -0.0010486175085125636 0.0 1.2619221413755088 -0.08827869279400463 0.0 0.06462217449002826 -0.02365196939890274 0.0 -0.11044429300040573 -0.0033317571171519083 0.0 -0.026252488837210274 0.009191606267618483 0.0 0.047260937355957294 -0.019532435436176315 0.0 -0.06646494535374081 -0.010260786680174574 0.0 0.4206264258540695 -0.050755295848815364 0.0 -0.0465049891346559 -0.013817033815230056 0.0 0.11370134947178791 0.025456725894379143 0.0 -0.0818995120942361 0.0042288594248303096 0.0 -0.07183785650138436 -0.010234335848749823 0.0 -0.09860068106733927 -0.00216953547013819 0.0 0.03931025459509901 0.01569393060659032 0.0 1.2188242396002276 0.10529387402302649 0.0 0.32663652412910194 0.03687971155223926 0.0 0.305654506277674 -0.04793032650308634 0.0 0.2577720668690085 -0.009854285245198957 0.0 0.7093223793883214 -0.020474427884042832 0.0 0.30660860805969936 0.006152500995606768 0.0 1.1763071300410952 0.05310788116172606 0.0 0.8884080331368159 0.06108284014475909 0.0 0.9306571843683168 -0.08415711023607501 0.0 -0.04783945917137204 -0.003278746472141436 0.0 -0.057414010503940426 -0.0035145081021719106 0.0 -0.11814388075824334 -0.0013123175105453013 0.0 -0.04571865608029607 0.004449187642951479 0.0 -0.07826748686673136 -0.004387971044172117 0.0 0.32804374880359366 -0.03987862970613433 0.0 1.2582526625697117 -0.09458825649090084 0.0 0.6282230128065996 -0.06292247901380732 0.0 0.8949418843159709 -0.08761631797517049 0.0 -0.02840343929353571 0.009775461058340843 0.0 0.06172183540764702 -0.026628873452890774 0.0 -0.007301687615259202 -0.02017652093822337 0.0 0.208504128922341 -0.0428033637119712 0.0 -0.015834054170930433 -0.019180146370276936 0.0 1.254400457919724 0.10510099164517568 0.0 -0.0659804672395892 -0.006101320993077444 0.0 -0.013184424433230512 0.0050360698214913895 0.0 -0.05059028276235457 -0.005500247261432715 0.0 0.05340125181147538 -0.026967202758916706 0.0 0.336768781800019 0.025204474072742778 0.0 0.6899154797407682 -0.07179428217660577 0.0 0.5089858777682476 -0.06217265660647686 0.0 0.7887757026921725 -0.0691998790319269 0.0 0.26624308425430443 -0.04079866183180444 0.0 0.8195573747621061 -0.08995741710933776 0.0 1.1670693086494923 -0.09222375358412713 0.0 1.0686142751355743 -0.08463730476527687 0.0 1.041926393672078 -0.0758197203973291 0.0 0.5931591708104275 -0.07216239380249438 0.0 0.5037973339290976 -0.06770431012393283 0.0 0.3891374590332367 -0.06114169119811071 0.0 0.36556047183466145 -0.057949530870134984 0.0 0.14364728153326925 -0.03783142364728764 0.0 0.785734124176526 -0.09054909787294775 0.0 0.25936863226826484 0.015442384392653576 0.0 0.6065621334457758 0.03826374222786306 0.0 0.06663249513301912 0.006790503116611832 0.0 0.17089980698605917 0.018216480655553063 0.0 -0.07034941891469419 0.0009778957618045332 0.0 1.3327867911267692 -0.02440962797760489 0.0 1.217862220150609 0.041079378638464684 0.0 1.3552071694496843 -0.012090989841974799 0.0 1.326703635139239 -0.0635813072080746 0.0 0.1676532978815685 -0.040748405709030995 0.0 0.35330685763034003 -0.05788923553744859 0.0 0.5578558421941121 0.04690478981216296 0.0 0.08667954370113755 0.015450601929180336 0.0 1.3082382277899738 0.004112283484836885 0.0 1.3483388748110094 -0.0330583409076673 0.0 0.5181326226077821 0.06497216516748243 0.0 1.3270778863444874 -0.07727040646666544 0.0 0.5880294897050391 0.0435675679636446 0.0 1.2818977300215613 0.07164252646165806 0.0 0.33178101983096625 0.033567398402817805 0.0 0.7028854835917796 0.06332713470986324 0.0 1.3346431193512494 0.024202399843970483 0.0 1.231196003830677 -0.024263333955998986 0.0 1.3175181453339022 -0.08741674311078344 0.0 0.8241125886923021 0.06132080389569159 0.0 1.0468182414126783 0.07848507448187801 0.0 1.1062426545849533 0.07216529568404095 0.0 1.266612078816782 0.09728463409004053 0.0 1.1276713714792794 0.09582450461305021 0.0 0.9736425025859101 0.08047619827874627 0.0 0.6672977364342058 0.06620721024100375 0.0 1.272487447107052 -0.09049448345921346 0.0 0.0 0.0 0.0 1.3077921811633477 0.05761646168343764 0.0 0.9156509421344765 0.0877442985757744 0.0 0.3243077042349256 0.04049671836316373 0.0 1.315665944183108 0.07116974442352655 0.0 0.897957471858806 0.08388596701826266 0.0 1.270203792707343 0.09031429844471577 0.0 0.5967134228900941 0.06444250506769172 0.0 1.2622368604589227 0.10234377938212115 0.0 0.5484840068622323 0.06517263847322423 0.0 0.2553564590729808 0.03753164781866486 0.0 1.1460851691058487 0.09991241627782088 0.0 0.660130838572007 0.07242497201447166 0.0 1.0721667639605053 0.10144352341919095 0.0 0.8436168942969988 0.08810680387463096 0.0 0.7755744507778103 0.08598146470505193 0.0 1.194767687420578 0.08783197057914148 0.0 1.1150447879645133 0.09070358128230344 0.0 1.3061113901452484 0.08119413049552754 0.0 0.1553087002614155 0.026788313327587396 0.0 1.1531649830058617 0.07868288448034828 0.0 1.2168144250742052 0.10504122409401412 0.0 1.1578336721740123 0.10593550629582862 0.0 1.2358908600863576 0.10758312458024201 0.0 1.2453600614450007 0.10776680296208992 0.0 1.2913876628875693 0.08622780169604254 0.0 1.18341670147521 0.06796286224242375 0.0 0.9467283980787189 0.09985703928194622 0.0 1.230647781520105 0.09231387084387258 0.0 1.279513928120881 0.0898275369662716 0.0 1.0458993036842912 0.06484123002962713 0.0 1.1642755259337367 0.10903407693237184 0.0 1.0822317529269938 0.10823288902602769 0.0 1.0605780267858531 0.10452267713354982 0.0 1.2341042637087345 0.097224153776326 0.0 0.0 0.0 0.0 0.6445097283980828 -0.0054580096433825935 0.0 1.077936589417881 0.4343016306000775 0.0 1.167029638932398 0.4222915904970409 0.0 1.0821604014614559 -0.4266880751996277 0.0 0.8655216826777061 -0.22697745622445165 0.0 0.9787819639111698 -0.25547727441699325 0.0 0.8923598251399317 -0.084934079131654 0.0 1.2227629394024822 -0.05234138486595133 0.0 1.0812264634434607 -0.06415062568417401 0.0 1.1985890690848238 -0.10467492805553212 0.0 1.2651952867222018 -0.08463827651106864 0.0 1.3154425141226334 -0.05375982717121315 0.0 -0.08395053395278525 -0.002125312268982587 0.0 -0.05013429884202298 0.007763401153662329 0.0 0.0017399117909280893 0.010052280235497615 0.0 0.0011789860835897323 0.012037029565711906 0.0 0.14874607350379498 0.026796850425675804 0.0 -0.05755247213041139 0.008419665000111747 0.0 0.06212435244470618 0.022033508372635915 0.0 0.219380992424715 0.037270701177651834 0.0 0.0857454319634029 0.038577303011924226 0.0 -0.036515296229503766 0.01538419990767066 0.0 1.034859858776521 0.160705975054586 0.0 -0.0699013816230166 0.004519715190840662 0.0 1.2544756652739233 -0.10162395031175797 0.0 1.1427752188363267 -0.09963713379053246 0.0 0.9521469528399805 -0.09430184523810191 0.0 1.1043154769815444 -0.1036503619199784 0.0 1.2372612717326184 -0.10572328599168662 0.0 0.9136944734638255 -0.09737062576184576 0.0 1.2454361118252775 -0.10683051465806252 0.0 1.0770771156297727 -0.10593241175043375 0.0 1.1326835874960322 -0.10602543211893409 0.0 0.8619190667204031 -0.09570768400050457 0.0 0.906535911446187 -0.09861706290833314 0.0 0.6254546975065216 -0.0802141476351915 0.0 1.102425069756 -0.10754658098721429 0.0 1.2304998663408033 -0.10441702066024339 0.0 1.0658967831167983 -0.10432052467276656 0.0 1.1667270846306605 -0.08519019327196602 0.0 1.1904485788920924 -0.10737566650955804 0.0 0.678526319928158 -0.08216804992555979 0.0 1.13745780759139 -0.10341543350946839 0.0 0.9353216852613083 -0.09732696087