<?xml version="1.0"?>
<VTKFile type="UnstructuredGrid"  version="0.1"  >
<UnstructuredGrid>
<Piece  NumberOfPoints="1289" NumberOfCells="2413">
<Points>
<DataArray  type="Float64"  NumberOfComponents="3"  format="ascii">0 0 0  0 0.41 0  2.2 0.41 0  2.2 0 0  0.1 0.1 0  0.1 0.3 0  0.8 0.3 0  0.8 0.1 0  0.25 0.2 0  0.248976 0.210065 0  0.245948 0.219718 0  0.241038 0.228563 0  0.234448 0.23624 0  0.226448 0.242432 0  0.217365 0.246888 0  0.207571 0.249423 0  0.197468 0.249936 0  0.187467 0.248404 0  0.17798 0.24489 0  0.169395 0.239539 0  0.162062 0.232569 0  0.156283 0.224265 0  0.152293 0.214968 0  0.150257 0.205058 0  0.150257 0.194942 0  0.152293 0.185032 0  0.156283 0.175735 0  0.162062 0.167431 0  0.169395 0.160461 0  0.17798 0.15511 0  0.187467 0.151596 0  0.197468 0.150064 0  0.207571 0.150577 0  0.217365 0.153112 0  0.226448 0.157568 0  0.234448 0.16376 0  0.241038 0.171437 0  0.245948 0.180282 0  0.248976 0.189935 0  1.1 0 0  1.1 0.41 0  0.1 0.2 0  0.45 0.1 0  0.45 0.3 0  0.55 0 0  0.275 0.1 0  0.275 0.3 0  0.275 0 0  0.55 0.41 0  0 0.205 0  0.825 0 0  0.825 0.41 0  0.275 0.41 0  0.1 0.15 0  0.1875 0.1 0  0.1 0.25 0  0.1875 0.3 0  0.132322 0.2 0  0.241426 0.253518 0  0.241426 0.146482 0  0.264574 0.17974 0  0.264574 0.22026 0  0.138434 0.187348 0  0.153372 0.150948 0  0.148413 0.164094 0  0.176495 0.136535 0  0.22768 0.143571 0  0.138434 0.212652 0  0.148413 0.235906 0  0.176495 0.263465 0  0.22768 0.256429 0  0.23125 0.3 0  0.24769 0.24094 0  0.23125 0.1 0  0.24769 0.15906 0  0.26253 0.193641 0  0.190482 0.137872 0  0.166753 0.146661 0  0.157737 0.244461 0  0.190482 0.262128 0  0.203107 0.261264 0  0.253635 0.22977 0  0.203107 0.138736 0  0.253635 0.17023 0  0.261028 0.206206 0  0.167707 0.251809 0  0.143629 0.224191 0  0.215302 0.2591 0  0.270465 0.245894 0  0.215302 0.1409 0  0.270465 0.154106 0  0.284052 0.202587 0  0.14375 0.3 0  0.209375 0.3 0  0.225966 0.278501 0  0.209375 0.1 0  0.225966 0.121499 0  0.211613 0.273759 0  0.211613 0.126241 0  0.143629 0.175809 0  0.1 0.175 0  0.133484 0.164832 0  0.144491 0.249539 0  0.1 0.225 0  0.133484 0.235168 0  0.3625 0.3 0  0.25691 0.253381 0  0.25691 0.146619 0  0.277205 0.188698 0  0.184724 0.275712 0  0.237372 0.268285 0  0.184724 0.124288 0  0.237372 0.131715 0  0.197578 0.273149 0  0.193656 0.286994 0  0.197578 0.126851 0  0.193656 0.113006 0  0.122953 0.187671 0  0.118362 0.153758 0  0.155372 0.258107 0  0.122953 0.212329 0  0.118362 0.246242 0  0.276394 0.27264 0  0.276394 0.12736 0  0.280965 0.170013 0  0.253125 0.3 0  0.14375 0.1 0  0.253125 0.1 0  0.269489 0.26014 0  0.269489 0.13986 0  0.303639 0.184297 0  0.165625 0.3 0  0.134742 0.273113 0  0.257831 0.274737 0  0.255279 0.128499 0  0.3625 0.1 0  0.165625 0.1 0  0.162031 0.132368 0  0.134955 0.126405 0  0.149334 0.125568 0  0.142936 0.139597 0  0.12695 0.140259 0  0.242514 0.285501 0  0.242514 0.114499 0  0.1 0.125 0  0.117483 0.12555 0  0.11154 0.139776 0  0.121875 0.1 0  0.109143 0.1125 0  0.126805 0.114 0  0.220313 0.29129 0  0.351562 0.287369 0  0.207222 0.2866 0  0.220312 0.10871 0  0.1375 0 0  0.20625 0 0  0.207222 0.1134 0  0.11722 0.17118 0  0.1 0.1625 0  0.0778409 0.16875 0  0.0862762 0.15625 0  0 0.15375 0  0 0.1025 0  0.11722 0.22882 0  0.1 0.2375 0  0 0.3075 0  0.0862762 0.23125 0  0.0598995 0.222547 0  0.0860223 0.2125 0  0.289584 0.181469 0  0.300267 0.16446 0  0.163832 0.269071 0  0.149597 0.273325 0  0.1 0.275 0  0.268498 0.285953 0  0.31875 0.3 0  0.294154 0.254672 0  0.296875 0.3 0  0.293558 0.271845 0  0.285095 0.286799 0  0.324298 0.264316 0  0.307866 0.263745 0  0.317093 0.234901 0  0.315485 0.281219 0  0.316547 0.250625 0  0.344693 0.243731 0  0.331592 0.251147 0  0.35129 0.270663 0  0.338689 0.263683 0  0.340625 0.3 0  0.249849 0.264383 0  0.265097 0.11422 0  0.284688 0.156136 0  0.242188 0.324017 0  0.0856613 0.2625 0  0.132812 0.0612217 0  0.264062 0.0612217 0  0.198437 0.07598340000000001 0  0.0860223 0.1375 0  0.0794526 0.191089 0  0.285228 0.140397 0  0.298655 0.148737 0  0.31875 0.1 0  0.327335 0.15374 0  0.296875 0.1 0  0.312289 0.155283 0  0.313348 0.135607 0  0.321802 0.173916 0  0.298433 0.134116 0  0.112124 0.2625 0  0.127526 0.259083 0  0.121875 0.3 0  0.0682687 0.241503 0  0.1 0.2875 0  0.117762 0.28125 0  0.107813 0.3 0  0.103906 0.313849 0  0.0778409 0.28125 0  0.1375 0.41 0  0.0862762 0.29375 0  0.08886860000000001 0.24375 0  0.307812 0.338778 0  0.307812 0.292227 0  0.33216 0.279164 0  0.387888 0.266414 0  0.264063 0.31948 0  0.110937 0.07598340000000001 0  0.242188 0.07598340000000001 0  0.319914 0.11839 0  0.340625 0.1 0  0.334448 0.133793 0  0.329687 0.108539 0  0.346259 0.118491 0  0.360334 0.173636 0  0.327539 0.205033 0  0.132812 0.288712 0  0.362436 0.278836 0  0.368105 0.259418 0  0.4125 0.41 0  0.329687 0.324017 0  0.329687 0.292306 0  0.285938 0.318952 0  0.417187 0.338778 0  0.324481 0.14148 0  0.351562 0.106771 0  0.40625 0.1 0  0.341028 0.168342 0  0.319221 0.190479 0  0.335292 0.184501 0  0.305563 0.20794 0  0.220313 0.31948 0  0.132812 0.332772 0  0.0865876 0.311259 0  0.0598995 0.302453 0  0.0906541 0.343255 0  0.353543 0.255837 0  0.36574 0.237633 0  0.405007 0.254279 0  0.275795 0.352123 0  0.4125 0 0  0.35493 0.137394 0  0.366563 0.120618 0  0.35917 0.205246 0  0.198438 0.318952 0  0.0626109 0.263892 0  0.40625 0.3 0  0.354809 0.155936 0  0.386512 0.146872 0  0.373101 0.159939 0  0.384375 0.1 0  0.343394 0.19929 0  0.350682 0.185683 0  0.368101 0.189748 0  0.344016 0.221511 0  0.391108 0.213329 0  0.376279 0.204783 0  0.398843 0.182768 0  0.375804 0.222746 0  0.390665 0.196958 0  0.394004 0.23518 0  0.359883 0.222828 0  0.419908 0.204359 0  0.404243 0.204783 0  0.412615 0.224526 0  0.20625 0.41 0  0.165625 0.325257 0  0.0347982 0.244954 0  0.379558 0.247154 0  0.34165 0.147603 0  0.372264 0.136992 0  0.388988 0.121989 0  0.373437 0.108554 0  0.351562 0.31948 0  0.391367 0.16527 0  0.399572 0.223324 0  0.452011 0.227371 0  0.40877 0.239392 0  0.431491 0.237337 0  0.421224 0.250459 0  0.449619 0.262098 0  0.418865 0.276779 0  0.437063 0.252274 0  0.415673 0.263227 0  0.430988 0.266772 0  0.402767 0.273419 0  0.452967 0.244883 0  0.428125 0.3 0  0.408502 0.286186 0  0.384375 0.3 0  0.392267 0.285807 0  0.465927 0.219339 0  0.43489 0.283846 0  0.376424 0.286289 0  0.625 0.3 0  0.473533 0.205186 0  0.461713 0.255517 0  0.5375 0.3 0  0.465725 0.235405 0  0.44631 0.201425 0  0.471875 0.3 0  0.494307 0.227729 0  0.459448 0.206736 0  0.462294 0.180792 0  0.478933 0.227536 0  0.486793 0.21381 0  0.486322 0.251373 0  0.50065 0.215318 0  0.54005 0.175389 0  0.474633 0.189893 0  0.512916 0.208697 0  0.49531 0.199967 0  0.475889 0.175275 0  0.625 0.1 0  0.459311 0.153933 0  0.513645 0.242704 0  0.392892 0.248539 0  0.374815 0.271913 0  0.365974 0.14871 0  0.395312 0.109184 0  0.417061 0.123981 0  0.483196 0.277003 0  0.381967 0.179632 0  0.429898 0.219374 0  0.433473 0.206165 0  0.43149 0.181038 0  0.444208 0.215487 0  0.472985 0.247309 0  0.49375 0.3 0  0.475579 0.262714 0  0.49916 0.274293 0  0.501175 0.184809 0  0.514164 0.225681 0  0.543648 0.214977 0  0.5341630000000001 0.23481 0  0.527396 0.216171 0  0.5375 0.1 0  0.534548 0.202315 0  0.561545 0.192513 0  0.5494289999999999 0.201221 0  0.570923 0.218346 0  0.412582 0.149833 0  0.489327 0.264745 0  0.502439 0.254775 0  0.462391 0.271166 0  0.496775 0.241732 0  0.5294410000000001 0.268606 0  0.482812 0.291099 0  0.46879 0.285038 0  0.452663 0.284065 0  0.51789 0.257882 0  0.53408 0.252026 0  0.560142 0.243543 0  0.545708 0.243474 0  0.547532 0.229019 0  0.55282 0.265323 0  0.398971 0.153424 0  0.400349 0.135684 0  0.410135 0.168145 0  0.428823 0.161323 0  0.415266 0.183779 0  0.329687 0.0810483 0  0.395312 0.0612217 0  0.373437 0.318952 0  0.439062 0.324017 0  0.561816 0.229354 0  0.585029 0.239287 0  0.431827 0.139854 0  0.446796 0.168929 0  0.351562 0.07598340000000001 0  0.395313 0.318944 0  0.54337 0.150762 0  0.460937 0.31948 0  0.418412 0.137529 0  0.428125 0.1 0  0.442783 0.152332 0  0.450742 0.134294 0  0.373437 0.0805201 0  0.384383 0.342558 0  0.482812 0.318952 0  0.429239 0.127457 0  0.444274 0.117405 0  0.426548 0.113815 0  0.49375 0.1 0  0.488954 0.113984 0  0.457973 0.121842 0  0.471621 0.137346 0  0.515625 0.325257 0  0.48125 0.41 0  0.417187 0.07598340000000001 0  0.496363 0.126778 0  0.479043 0.155715 0  0.439062 0.0805201 0  0.481795 0.126919 0  0.471875 0.1 0  0.489227 0.142159 0  0.515625 0.1 0  0.520062 0.147117 0  0.501244 0.161791 0  0.505431 0.112984 0  0.505344 0.14029 0  0.526563 0.119081 0  0.5181750000000001 0.131908 0  0.539868 0.136937 0  0.460937 0.108383 0  0.474242 0.114415 0  0.460937 0.0810483 0  0.487841 0.167168 0  0.526563 0.0612217 0  0.526563 0.106406 0  0.537619 0.112743 0  0.58125 0.1 0  0.559375 0.1 0  0.482812 0.08105569999999999 0  0.471883 0.0587655 0  0.570312 0.129396 0  0.548437 0.07598340000000001 0  0.504687 0.08105569999999999 0  0.49375 0.0470127 0  0.570312 0.112663 0  0.592798 0.12103 0  0.553986 0.12103 0  0.570312 0.0805201 0  0.48125 0 0  0.114787 0.2 0  0.160769 0.284765 0  0.175816 0.288361 0  0.162602 0.116048 0  0.154687 0.07598340000000001 0  0.176562 0.0805201 0  0.0598995 0.147547 0  0.307812 0.109924 0  0.291279 0.117157 0  0.278491 0.112989 0  0.285937 0.07598340000000001 0  0.307812 0.0805201 0  0.296928 0.196743 0  0.318141 0.218507 0  0.330208 0.227509 0  0.301397 0.225668 0  0.302706 0.241401 0  0.292574 0.21424 0  0.282762 0.230935 0  0.284351 0.244775 0  0.269553 0.23261 0  0.278572 0.217242 0  0.226924 0.342606 0  0.446928 0.185396 0  0.515625 0.3 0  0.504687 0.288879 0  0.515256 0.276534 0  0.529479 0.285328 0  0.58125 0.3 0  0.541969 0.272936 0  0.559375 0.3 0  0.556796 0.282529 0  0.543473 0.287206 0  0.581429 0.267774 0  0.566728 0.271171 0  0.570869 0.255585 0  0.577404 0.283865 0  0.603125 0.3 0  0.597531 0.28035 0  0.570312 0.338778 0  0.592188 0.292492 0  0.603513 0.256094 0  0.614063 0.286265 0  0.610329 0.27064 0  0.632708 0.251285 0  0.657223 0.261594 0  0.618789 0.257807 0  0.614188 0.22987 0  0.630935 0.265614 
[...]
<PointData  Vectors="v"> 
	<DataArray  type="Float64"  Name="v"  NumberOfComponents="3" format="ascii">
0.0 0.0 0.0 0.0 0.0 0.0 0.0 0.0 0.0 0.0 0.0 0.0 0.7962345287745846 -0.19596780773842934 0.0 0.8404051395321156 0.20777440067207642 0.0 1.1691488764127276 -0.05647676533839687 0.0 1.1357382513005239 0.0579964400944988 0.0 0.0 0.0 0.0 0.0 0.0 0.0 0.0 0.0 0.0 0.0 0.0 0.0 0.0007993221659886974 0.0006904951701528725 0.0 -0.002470254946546723 -0.004415289639036862 0.0 -0.00032484992643125977 -0.0005499401049508439 0.0 0.0 0.0 0.0 0.0 0.0 0.0 0.0 0.0 0.0 0.0 0.0 0.0 0.0 0.0 0.0 0.0 0.0 0.0 0.0 0.0 0.0 0.0 0.0 0.0 0.0 0.0 0.0 0.0 0.0 0.0 0.0 0.0 0.0 0.0 0.0 0.0 0.0 0.0 0.0 0.0 0.0 0.0 0.0 0.0 0.0 0.0 0.0 0.0 0.0 0.0 0.0 0.0 0.0 0.0 0.001290579768598122 -0.0022378155045489536 0.0 0.0031023877352053656 -0.005238286243547437 0.0 0.0009074112905568154 -0.0008967399170766941 0.0 0.0 0.0 0.0 0.0 0.0 0.0 0.0 0.0 0.0 0.0 0.0 0.0 0.0 0.0 0.0 0.7613310828520583 -0.0012756001743931267 0.0 1.2749742415284493 0.08295562162154174 0.0 1.2668585532260461 -0.0773569719596384 0.0 0.0 0.0 0.0 1.3535345505709921 -0.1330759728081165 0.0 1.3581649890464216 0.1548867084892069 0.0 0.0 0.0 0.0 0.0 0.0 0.0 1.0 0.0 0.0 0.0 0.0 0.0 0.0 0.0 0.0 0.0 0.0 0.0 0.8425994391283863 -0.23187615884984114 0.0 1.151359987259529 -0.34421451079976334 0.0 0.8637803086369719 0.22931298742254355 0.0 1.166318221408427 0.35416887996733026 0.0 0.42823855180668474 -0.003943320278362476 0.0 0.16287975346344705 0.06149233757851094 0.0 0.17228641896883481 -0.06171328455299677 0.0 -0.027598515830201398 -0.03855722087946546 0.0 -0.026371372187561404 0.03660155586514273 0.0 0.3343779078055784 -0.2798137140876941 0.0 0.8579051659033239 -0.6734228448611816 0.0 0.6399995703912522 -0.6881293795449303 0.0 1.2062000994508477 -0.6132385626614325 0.0 0.4134609410620554 -0.06986744792651149 0.0 0.3304519069347625 0.26877894134136254 0.0 0.6428368268433697 0.6693551850559022 0.0 1.1851293253188304 0.6154334647977667 0.0 0.4102448967624109 0.07051507622595855 0.0 1.3133070097530197 0.2608116742481031 0.0 0.32771962692543116 0.2560665598127062 0.0 1.3024957918473297 -0.24055034160849798 0.0 0.3161748359813502 -0.23974949124562847 0.0 -0.03373459679818708 -0.017062984486839468 0.0 1.1251236498316433 -0.39873372534514223 0.0 1.0932542404782368 -0.724323667873156 0.0 0.8520544423625745 0.7707685585104778 0.0 1.1312388290671227 0.39957688267731056 0.0 0.7591696106535079 0.18612114996161241 0.0 0.10930953807885829 0.05217337506103795 0.0 0.7697036503320779 -0.18178575116976414 0.0 0.11167238357662904 -0.05003206470415592 0.0 -0.029846049839783128 0.019292184329644874 0.0 1.0274872506291126 0.718897688817214 0.0 0.4423893344285888 0.529227908627596 0.0 0.4588754670770338 0.17910219404493385 0.0 0.27396435966676513 0.06956446849259255 0.0 0.46338985124326104 -0.17217308346167468 0.0 0.27908866197344145 -0.0649109778126612 0.0 -0.0756194717842078 0.002409616445123624 0.0 0.9654838877616071 0.31744996739566916 0.0 1.2606390817662183 0.3132879423322364 0.0 1.2452885860420917 0.2889496090799627 0.0 1.234728194692808 -0.307505973910397 0.0 1.2476902540649357 -0.28083094355740995 0.0 1.2201735270102834 0.33121834464957806 0.0 1.2262285254528076 -0.3223905760552429 0.0 0.44288683575372967 -0.5445446969800161 0.0 0.8020191795157741 -0.13961792274889293 0.0 0.6715133090147237 -0.41966360089113103 0.0 0.8773684066439056 0.5938775621438328 0.0 0.7993069430346412 0.1428144805986345 0.0 0.6764950033946555 0.42018392131190047 0.0 1.292952459311155 -0.007156594255417272 0.0 0.2942039657934001 0.14598136788269736 0.0 0.29602898728969707 -0.13468283517177534 0.0 -0.05468009793480165 -0.012881437977453504 0.0 1.265056792282023 0.4719242784019288 0.0 0.769023299761936 0.12056654014852469 0.0 1.2611592146830528 -0.4731501685947236 0.0 0.7887408790448119 -0.1156185833809777 0.0 1.2755906837759003 0.41821970353024285 0.0 1.2540430958786772 0.4012441608856496 0.0 1.2716458562606225 -0.4140385427982419 0.0 1.2446648954912054 -0.3809558283097466 0.0 0.5835297268382228 -0.16050015222267433 0.0 0.7964381877353542 -0.3317839802574716 0.0 1.0104287353739883 0.6038438701721287 0.0 0.5917522130110577 0.1506359927027019 0.0 0.8125621797867733 0.33172649385484887 0.0 0.7458660007150266 0.08108740796826519 0.0 0.7828463093714668 -0.07297061032634188 0.0 0.05284310864589884 -0.021991719397741392 0.0 1.3635825090781233 0.20746714790046317 0.0 0.929818276251432 -0.32216946607199853 0.0 1.3443343283833318 -0.19001515684348416 0.0 0.40993215078480244 0.0917095142605761 0.0 0.42814996805036926 -0.07835011113977736 0.0 -0.05466507615343699 -0.007854397665834028 0.0 1.057375212140266 0.35406294284538403 0.0 0.9431591585042306 0.39150867270207473 0.0 0.9225434216569214 0.1122988764738406 0.0 0.8238903774841349 -0.08701186628023089 0.0 1.3066442442905015 0.016669649703590687 0.0 1.0274943018906353 -0.3451097852843004 0.0 1.074512704056886 -0.570263302232713 0.0 0.9301392756320761 -0.3893499361967282 0.0 0.9974762020139953 -0.43858990095809164 0.0 0.9329403323711437 -0.5427867008471601 0.0 0.8655373136276785 -0.40646606199178975 0.0 1.2731088440895055 0.23287473691253008 0.0 1.2717211563628348 -0.21957110186338002 0.0 0.8526588195844764 -0.2356144052395513 0.0 0.8790536998687286 -0.3099231995077321 0.0 0.8528995812901277 -0.29902215165335566 0.0 0.8514069146534488 -0.25636599187436493 0.0 0.8542133658799861 -0.2527548657495327 0.0 0.8962753149033001 -0.31942683015422096 0.0 1.32938575256122 0.31571671477651114 0.0 1.0849412971026047 -0.0023813287124219086 0.0 1.314669481828215 0.36248378008700954 0.0 1.321142427730993 -0.29584888991354913 0.0 0.0 0.0 0.0 0.0 0.0 0.0 1.2993566808960402 -0.3492739459751589 0.0 0.7142456792153963 -0.26729225269377055 0.0 0.8203939322779513 -0.2107508495202937 0.0 0.8711723918445422 -0.11075340780753604 0.0 0.862443922447802 -0.16376145247284205 0.0 0.9375 0.0 0.0 0.7500000000000001 0.0 0.0 0.7224766610653153 0.26533026696189077 0.0 0.8240387825651203 0.20015856749399585 0.0 0.7499999999999999 0.0 0.0 0.8697181262219797 0.12782920868353742 0.0 0.9287131387798617 0.04283015488692758 0.0 0.8481120777506475 0.04507398175667915 0.0 -0.03494985407706773 -0.011369698985158903 0.0 0.09235210682986325 -0.01728737130346265 0.0 1.115014113334028 0.5548394186979644 0.0 1.0190163379252077 0.4731954556437106 0.0 0.8809723474659584 0.2454878109143118 0.0 1.2001135724743757 0.13911366615870463 0.0 1.328974193131769 0.059866291936533825 0.0 0.35386878058789 0.03815675397711465 0.0 1.356273072793456 0.10293161533426921 0.0 0.7145824189644674 0.05400833194827086 0.0 1.1713209697791407 0.10032878640433684 0.0 0.5156432270376061 0.015925963656150875 0.0 0.4972457659082903 0.03015102242934946 0.0 0.07056535174429242 0.01327029106060525 0.0 0.9570165255395862 0.03460308610300847 0.0 0.2583030558935454 0.022168795501146334 0.0 0.16426995782450374 0.00845477489631195 0.0 0.2688345257596735 0.014597903424415554 0.0 0.6674127837886561 -0.004748795032659547 0.0 0.49928669563629063 0.0070621577858257945 0.0 1.3159560467015734 0.019323164171863458 0.0 0.5424598112226187 0.0616557007936839 0.0 1.2299602025243954 -0.14205597579436036 0.0 0.20352643217577146 -0.03756425582146611 0.0 1.2058784371249813 0.17361800593141713 0.0 0.8828234463005991 0.1797491590952032 0.0 0.7011103980441612 -0.1679229513854045 0.0 1.1154521211087962 -0.09426084275359843 0.0 1.0384650028690419 -0.22366997155553542 0.0 0.8637536452156053 -0.18264296517465883 0.0 0.875420651972192 -0.02559127609688406 0.0 0.4404810496265159 -0.04825057857471406 0.0 0.29195950374656027 -0.0329760817997609 0.0 1.3288558701794435 -0.041902278151366254 0.0 0.20950565379811495 -0.013286517829030078 0.0 1.3552427127308588 -0.08637618394703857 0.0 0.19263679963410954 -0.018854090510415873 0.0 0.5362949906097478 -0.015709956396953172 0.0 -0.001232511876334083 -0.01089623220441838 0.0 0.5727549689493378 -0.03155819737523515 0.0 0.8788922654621726 0.29718056254479386 0.0 0.8795633232284598 0.4108065021230916 0.0 0.885097012704123 0.27036420403414174 0.0 0.9122194804572916 0.10984860609227906 0.0 0.8651795497537148 0.2233112064845139 0.0 0.9047295289061831 0.30374753181758246 0.0 0.8572384184553334 0.23354066617230224 0.0 0.8020271614985386 0.18339768309721113 0.0 0.8670541460909625 0.16153435805015223 0.0 0.0 0.0 0.0 0.8415181211843281 0.17670224154481975 0.0 0.8706564589080954 0.1710345812381913 0.0 1.213174745690425 0.04974265133482523 0.0 1.237791219444222 0.06501417264505623 0.0 0.8907749307542049 0.013278010688247046 0.0 0.5949010315767206 -0.02581973232956919 0.0 1.2799151313460002 0.1471027227239456 0.0 0.7176133120649355 -0.1736996482721549 0.0 1.177844109035392 -0.164478956304878 0.0 0.998441471653723 -0.01985344939171555 0.0 1.32337479572591 -0.007728653673326292 0.0 0.5860046850979872 -9.88019600136026e-05 0.0 1.220209018068779 -0.01266780516495676 0.0 0.9833336333866253 0.009219287356828868 0.0 -0.0042620622852239136 -0.006695022526689858 0.0 -0.09628742236532589 0.0011899603647164267 0.0 0.9448619861800011 0.34126597597753633 0.0 0.8783715755010816 -0.01837044643369444 0.0 0.4284489415293807 -0.008116402069894583 0.0 0.0 0.0 0.0 1.328724452351125 0.0374809884045213 0.0 1.2128878315936558 0.024975079265928627 0.0 1.31733500145773 0.11462487231361569 0.0 1.252555046547387 -0.04434288819910328 0.0 0.41447150116946735 -0.013745210842339959 0.0 1.2280857469440318 0.010519278868303051 0.0 1.2908771812414863 0.05701589319952044 0.0 0.04150550362251496 -0.00953752162834313 0.0 -0.08267021152013926 -0.004955090421373237 0.0 -0.06762043827155259 -0.007235918468315456 0.0 -0.08150524271907934 0.0030113755105873924 0.0 1.1858780187924578 0.2197334829377817 0.0 0.7774536449521744 0.1984995023776327 0.0 0.777912551882275 0.1542357202835084 0.0 0.7857362641187643 0.10690160760611056 0.0 0.620571269158147 0.11098498136010138 0.0 0.35398326345760966 0.0014493333043476377 0.0 0.09408751079371729 0.003919976499563872 0.0 0.3657883308464559 -0.020293953568222348 0.0 1.0720372475621343 0.07674000496536773 0.0 0.0 0.0 0.0 0.5203635958888351 0.011450746740618894 0.0 0.9317700779378767 0.029244126182950102 0.0 -0.10926214033114368 0.0007648820009827174 0.0 1.0970561881081282 0.26708119592745727 0.0 0.9003327835475246 0.11239076555193223 0.0 1.2806602663934357 -0.04943711129621454 0.0 0.18739653148996052 -0.003458554715944122 0.0 0.3591924872674862 0.01809213433636743 0.0 0.14348090572860467 0.00045526628632547154 0.0 1.3027240657970087 0.039356284106350815 0.0 -0.10614944193068956 -0.0014426489050606227 0.0 -0.07744534514538101 -0.006271050619842788 0.0 -0.09767330799410977 -0.004221149608332348 0.0 -0.04323913916698899 0.006965596069481295 0.0 -0.09507799531364661 0.0014897142046311704 0.0 -0.1156266400153754 0.00036896991342394534 0.0 -0.06677953373129614 -0.0013709491068780652 0.0 -0.04085032461589059 0.003638658441017666 0.0 -0.1194820950639093 -0.001499105747968369 0.0 0.07609892980008279 -0.0017071402956976816 0.0 -0.03841568042683722 0.0057200615802866055 0.0 -0.12262520887341417 -0.00018516646099599472 0.0 -0.12136269872481699 -5.0384999888375165e-05 0.0 -0.022925935443085823 -0.001780310947710386 0.0 0.0 0.0 0.0 0.9464347079358959 0.2554999006732089 0.0 0.951352151464621 0.040093453617538126 0.0 0.22570293967349264 -0.004313606443212743 0.0 0.309462547359095 -0.004402560837809092 0.0 0.5446974479779453 0.02105261939845822 0.0 0.9121975430066446 0.043137505169186935 0.0 1.1917971487189574 0.03461810666408707 0.0 1.3537812138292293 0.014639258296228775 0.0 0.08821454144729919 0.002722424074479292 0.0 -0.035215200314016 0.0005572867089653715 0.0 0.02394812037298782 -0.0105823947279073 0.0 0.13636062405961755 -0.008313817866032644 0.0 0.126736811421859 -0.013091366117643513 0.0 0.31652111061947696 -0.022837201522251903 0.0 0.5764116950932944 -0.050492891488494 0.0 0.8601161988895104 -0.052260108275730736 0.0 0.36793168973363577 -0.03122750138819715 0.0 0.5560362917815163 -0.03558427351805645 0.0 0.6513873850826228 -0.047469098933641166 0.0 0.7707812603199056 -0.04094675823169018 0.0 0.26059605903102595 -0.02749913729412228 0.0 1.2732645175844446 -0.06457727710588448 0.0 1.059031485601044 -0.05173786859963372 0.0 1.2867920459111328 -0.029067719958572845 0.0 1.049442156458632 -0.03966814200431329 0.0 -0.04158117257736844 -0.007533881630948989 0.0 1.0277908982653738 -0.06685217612673211 0.0 1.0605521400332703 -0.030065111156526953 0.0 1.2250347876172765 -0.10404298880988573 0.0 -0.10810299483206233 -0.0007896623913569557 0.0 0.4619051909514649 -0.045102445948301643 0.0 1.2521662005411343 -0.10650389350981634 0.0 0.13320242708082528 -0.02077476694303164 0.0 -0.1215825881021423 0.00043858557735253597 0.0 1.2623013715605356 -0.08749795963688628 0.0 0.06504953607113419 -0.020151332169681485 0.0 -0.11084896738582113 -0.0011659873868048952 0.0 -0.02676371424113904 0.011339698023873282 0.0 0.04733970429575674 -0.016616195775772606 0.0 -0.06650235497383471 -0.006780097634459524 0.0 0.42059087821141217 -0.04844839438943509 0.0 -0.04623676523575632 -0.0097821656770992 0.0 0.11053753469497465 0.02928306387627845 0.0 -0.08251523449147224 0.007141356350161956 0.0 -0.07179218991162983 -0.0056318302964496565 0.0 -0.09912432127281061 0.0018602981361012267 0.0 0.038546787245426886 0.018441938913792703 0.0 1.2175245481845094 0.10184865203828579 0.0 0.32666959640768267 0.03834544551109034 0.0 0.3070638493114247 -0.044612140806394564 0.0 0.25661605478885796 -0.009991088496004382 0.0 0.7087372707172285 -0.020565914061781935 0.0 0.30673938076872187 0.005775667732497404 0.0 1.1763317869873495 0.053115934275959946 0.0 0.8886491442935629 0.061276269695008795 0.0 0.9306019673738594 -0.08274827548470177 0.0 -0.04770199040689906 -0.003704080148612346 0.0 -0.05795450134003547 -0.0027585611378083013 0.0 -0.1185378717455182 -0.00040119397304774366 0.0 -0.04590229584793465 0.0051743352645898895 0.0 -0.07870311079116409 -0.003047414506456387 0.0 0.32765902871371466 -0.03783405271145983 0.0 1.259136560665916 -0.09385303911820768 0.0 0.627717752511179 -0.061247310230913045 0.0 0.8953797541058558 -0.08601487427398108 0.0 -0.02962513869118625 0.013738656340039835 0.0 0.06289328905873456 -0.022543493125608084 0.0 -0.005922356207196235 -0.015880404060115223 0.0 0.2109418644052001 -0.039173536534891744 0.0 -0.014859991024019317 -0.01458851264268097 0.0 1.2523891195527554 0.10497480499084716 0.0 -0.06628830275042631 -0.00139336857849302 0.0 -0.015251700465614873 0.008643062761090082 0.0 -0.05107922553433311 -0.0011422853597610728 0.0 0.056223614427700755 -0.024346172050790944 0.0 0.33715869931437653 0.025157724267867377 0.0 0.6898687469977001 -0.06988877773329562 0.0 0.5095931418334171 -0.059650998757800444 0.0 0.7881113615688601 -0.06800895962335482 0.0 0.2667729324024669 -0.03779643482507343 0.0 0.8215379343177646 -0.08843733572845024 0.0 1.1674841643117968 -0.09116875732865173 0.0 1.0684964828768921 -0.08356049553131256 0.0 1.0415625065754617 -0.07497347157621412 0.0 0.5945521976544228 -0.06978671615654285 0.0 0.5063455160833841 -0.06526546413822837 0.0 0.3936843344070297 -0.05931192949850344 0.0 0.36903327799803987 -0.05528883832709965 0.0 0.14662809291388892 -0.03419954512653691 0.0 0.789358485187595 -0.08974157553869569 0.0 0.2597239806246953 0.015166714688262696 0.0 0.6068062927371909 0.038110922627147305 0.0 0.06679187153673664 0.006738269304639124 0.0 0.17109645781839933 0.018666001313785166 0.0 -0.07044602611734231 0.0011553597723213817 0.0 1.332610437179249 -0.0244623764115283 0.0 1.2178171201061077 0.0411593289462825 0.0 1.355259817709221 -0.012044228117854874 0.0 1.3269613046672082 -0.06317904688293002 0.0 0.1714511195858543 -0.03794771965829158 0.0 0.3595057175866836 -0.0578235529772112 0.0 0.5583283555726941 0.047322844639608695 0.0 0.08651081654496257 0.016659107490856005 0.0 1.3081534464536086 0.004033703729803535 0.0 1.3483687804817135 -0.03293878982150169 0.0 0.5145229734856502 0.067245070607687 0.0 1.3274889982153129 -0.07676064685098245 0.0 0.5884272967336674 0.04370914865869132 0.0 1.281997114859385 0.07207547907834848 0.0 0.33206232744212427 0.03441451188884754 0.0 0.7033281003348372 0.06428719216789551 0.0 1.334605826675592 0.024158434628078058 0.0 1.23131800530962 -0.02417682979194113 0.0 1.3182373346197442 -0.08694106050743786 0.0 0.8244664125316069 0.06173216906332514 0.0 1.0470524924874673 0.07923281700696898 0.0 1.106443960160555 0.07260084330782215 0.0 1.265751284658489 0.09814891410279859 0.0 1.127170218952753 0.09710685062088029 0.0 0.973878233592441 0.08154126316010793 0.0 0.6674882579711171 0.06779391484689523 0.0 1.2736784302436461 -0.09047417762055583 0.0 0.0 0.0 0.0 1.3077544483279382 0.057871746215176816 0.0 0.9151315861625858 0.0894187815825313 0.0 0.3238231536347202 0.04279805559838255 0.0 1.3155801607941526 0.07164712729900814 0.0 0.8978663491761747 0.08546564782940155 0.0 1.2698360670522926 0.09120084709174181 0.0 0.5963334709574378 0.06659017406474146 0.0 1.2607602972743155 0.10284120274821992 0.0 0.5465031724337949 0.06776426963552303 0.0 0.253931863912592 0.04075414399536989 0.0 1.145010575351406 0.10107000042544682 0.0 0.6591454668065313 0.07470066624256361 0.0 1.0703137803233798 0.10238663590148131 0.0 0.8421400212494354 0.08986223333080709 0.0 0.7726790368932226 0.08736999109002386 0.0 1.194710959396676 0.08880583281590637 0.0 1.1148921898968074 0.0919027451361098 0.0 1.3057819395493984 0.0818135795968092 0.0 0.15430021324679472 0.029791632208556844 0.0 1.152199683386374 0.07845451248786067 0.0 1.214993956386813 0.10549954523133886 0.0 1.1555326840814566 0.10619471192075881 0.0 1.233393965702036 0.1055566238360217 0.0 1.2428645636637403 0.10674473366395201 0.0 1.2906738095805812 0.08680715551176219 0.0 1.182972763411868 0.06825144594167 0.0 0.9423228055098227 0.09909383801250916 0.0 1.2292901756722738 0.09154510224974667 0.0 1.2784862307548501 0.09017401299313396 0.0 1.0451595562790919 0.06496577151288786 0.0 1.160955953643941 0.10762881068872178 0.0 1.077752932622797 0.10562174288484695 0.0 1.0573856642484052 0.1043827369388652 0.0 1.2326099915712665 0.09568594520388309 0.0 0.0 0.0 0.0 0.6445082174345498 -0.0055681157298150645 0.0 1.0778377604311284 0.43429720321707943 0.0 1.1669129817084882 0.42232489378188326 0.0 1.0822639142216064 -0.42669651936487907 0.0 0.86558458962255 -0.22697059566683683 0.0 0.9788515360937856 -0.2554368891151889 0.0 0.8923707073200596 -0.08499733364240268 0.0 1.2227172633378518 -0.0522978536026807 0.0 1.0812698419596527 -0.06401632197283745 0.0 1.1987495634371539 -0.1044827589270931 0.0 1.265028549464447 -0.08453698727906155 0.0 1.3152624023271193 -0.05374437855764693 0.0 -0.08363374339308029 -0.0024102106284174113 0.0 -0.050282464678285024 0.0076115099605402105 0.0 0.0012308694176063042 0.00993431906361714 0.0 0.0009264370357267601 0.011899694754032778 0.0 0.14790776429392666 0.02677396912592167 0.0 -0.05743173439472352 0.008184231194704902 0.0 0.06176354270463604 0.02177330318601213 0.0 0.21866523381225947 0.03707559180437809 0.0 0.08546716520701801 0.03828848350974839 0.0 -0.036459244670019854 0.015056889199443067 0.0 1.0348751641317064 0.16080010041671897 0.0 -0.0702437917201282 0.0059379314212027485 0.0 1.255985040987873 -0.10121397793579322 0.0 1.1437793659817603 -0.09861321421086996 0.0 0.9533739044126128 -0.09296062450890076 0.0 1.1063145207303502 -0.10302066167218413 0.0 1.2399747866451944 -0.10784156470418915 0.0 0.9164296277293078 -0.09656427506096828 0.0 1.2480772450510234 -0.10797614611462895 0.0 1.0803642236714135 -0.10642163458676186 0.0 1.1352836132974342 -0.10607564231883772 0.0 0.8672604018939967 -0.0971367128383689 0.0 0.9107821841247313 -0.09915779948134656 0.0 0.6306889291933361 -0.07995664732492946 0.0 1.1064066063083997 -0.10925603799696625 0.0 1.2330105818751798 -0.10750479606185412 0.0 1.0706369262515025 -0.10726871980187748 0.0 1.1674547467565648 -0.08648400771224168 0.0 1.1938542171091096 -0.11016153423964253 0.0 0.6857225910608793 -0.08492589110129983 0.0 1.1413236014897887 -0.10731332788138775 0.0 0.9413586667270001 -0.10107716951136941