<?xml version="1.0"?>
<VTKFile type="UnstructuredGrid"  version="0.1"  >
<UnstructuredGrid>
<Piece  NumberOfPoints="1289" NumberOfCells="2413">
<Points>
<DataArray  type="Float64"  NumberOfComponents="3"  format="ascii">0 0 0  0 0.41 0  2.2 0.41 0  2.2 0 0  0.1 0.1 0  0.1 0.3 0  0.8 0.3 0  0.8 0.1 0  0.25 0.2 0  0.248976 0.210065 0  0.245948 0.219718 0  0.241038 0.228563 0  0.234448 0.23624 0  0.226448 0.242432 0  0.217365 0.246888 0  0.207571 0.249423 0  0.197468 0.249936 0  0.187467 0.248404 0  0.17798 0.24489 0  0.169395 0.239539 0  0.162062 0.232569 0  0.156283 0.224265 0  0.152293 0.214968 0  0.150257 0.205058 0  0.150257 0.194942 0  0.152293 0.185032 0  0.156283 0.175735 0  0.162062 0.167431 0  0.169395 0.160461 0  0.17798 0.15511 0  0.187467 0.151596 0  0.197468 0.150064 0  0.207571 0.150577 0  0.217365 0.153112 0  0.226448 0.157568 0  0.234448 0.16376 0  0.241038 0.171437 0  0.245948 0.180282 0  0.248976 0.189935 0  1.1 0 0  1.1 0.41 0  0.1 0.2 0  0.45 0.1 0  0.45 0.3 0  0.55 0 0  0.275 0.1 0  0.275 0.3 0  0.275 0 0  0.55 0.41 0  0 0.205 0  0.825 0 0  0.825 0.41 0  0.275 0.41 0  0.1 0.15 0  0.1875 0.1 0  0.1 0.25 0  0.1875 0.3 0  0.132322 0.2 0  0.241426 0.253518 0  0.241426 0.146482 0  0.264574 0.17974 0  0.264574 0.22026 0  0.138434 0.187348 0  0.153372 0.150948 0  0.148413 0.164094 0  0.176495 0.136535 0  0.22768 0.143571 0  0.138434 0.212652 0  0.148413 0.235906 0  0.176495 0.263465 0  0.22768 0.256429 0  0.23125 0.3 0  0.24769 0.24094 0  0.23125 0.1 0  0.24769 0.15906 0  0.26253 0.193641 0  0.190482 0.137872 0  0.166753 0.146661 0  0.157737 0.244461 0  0.190482 0.262128 0  0.203107 0.261264 0  0.253635 0.22977 0  0.203107 0.138736 0  0.253635 0.17023 0  0.261028 0.206206 0  0.167707 0.251809 0  0.143629 0.224191 0  0.215302 0.2591 0  0.270465 0.245894 0  0.215302 0.1409 0  0.270465 0.154106 0  0.284052 0.202587 0  0.14375 0.3 0  0.209375 0.3 0  0.225966 0.278501 0  0.209375 0.1 0  0.225966 0.121499 0  0.211613 0.273759 0  0.211613 0.126241 0  0.143629 0.175809 0  0.1 0.175 0  0.133484 0.164832 0  0.144491 0.249539 0  0.1 0.225 0  0.133484 0.235168 0  0.3625 0.3 0  0.25691 0.253381 0  0.25691 0.146619 0  0.277205 0.188698 0  0.184724 0.275712 0  0.237372 0.268285 0  0.184724 0.124288 0  0.237372 0.131715 0  0.197578 0.273149 0  0.193656 0.286994 0  0.197578 0.126851 0  0.193656 0.113006 0  0.122953 0.187671 0  0.118362 0.153758 0  0.155372 0.258107 0  0.122953 0.212329 0  0.118362 0.246242 0  0.276394 0.27264 0  0.276394 0.12736 0  0.280965 0.170013 0  0.253125 0.3 0  0.14375 0.1 0  0.253125 0.1 0  0.269489 0.26014 0  0.269489 0.13986 0  0.303639 0.184297 0  0.165625 0.3 0  0.134742 0.273113 0  0.257831 0.274737 0  0.255279 0.128499 0  0.3625 0.1 0  0.165625 0.1 0  0.162031 0.132368 0  0.134955 0.126405 0  0.149334 0.125568 0  0.142936 0.139597 0  0.12695 0.140259 0  0.242514 0.285501 0  0.242514 0.114499 0  0.1 0.125 0  0.117483 0.12555 0  0.11154 0.139776 0  0.121875 0.1 0  0.109143 0.1125 0  0.126805 0.114 0  0.220313 0.29129 0  0.351562 0.287369 0  0.207222 0.2866 0  0.220312 0.10871 0  0.1375 0 0  0.20625 0 0  0.207222 0.1134 0  0.11722 0.17118 0  0.1 0.1625 0  0.0778409 0.16875 0  0.0862762 0.15625 0  0 0.15375 0  0 0.1025 0  0.11722 0.22882 0  0.1 0.2375 0  0 0.3075 0  0.0862762 0.23125 0  0.0598995 0.222547 0  0.0860223 0.2125 0  0.289584 0.181469 0  0.300267 0.16446 0  0.163832 0.269071 0  0.149597 0.273325 0  0.1 0.275 0  0.268498 0.285953 0  0.31875 0.3 0  0.294154 0.254672 0  0.296875 0.3 0  0.293558 0.271845 0  0.285095 0.286799 0  0.324298 0.264316 0  0.307866 0.263745 0  0.317093 0.234901 0  0.315485 0.281219 0  0.316547 0.250625 0  0.344693 0.243731 0  0.331592 0.251147 0  0.35129 0.270663 0  0.338689 0.263683 0  0.340625 0.3 0  0.249849 0.264383 0  0.265097 0.11422 0  0.284688 0.156136 0  0.242188 0.324017 0  0.0856613 0.2625 0  0.132812 0.0612217 0  0.264062 0.0612217 0  0.198437 0.07598340000000001 0  0.0860223 0.1375 0  0.0794526 0.191089 0  0.285228 0.140397 0  0.298655 0.148737 0  0.31875 0.1 0  0.327335 0.15374 0  0.296875 0.1 0  0.312289 0.155283 0  0.313348 0.135607 0  0.321802 0.173916 0  0.298433 0.134116 0  0.112124 0.2625 0  0.127526 0.259083 0  0.121875 0.3 0  0.0682687 0.241503 0  0.1 0.2875 0  0.117762 0.28125 0  0.107813 0.3 0  0.103906 0.313849 0  0.0778409 0.28125 0  0.1375 0.41 0  0.0862762 0.29375 0  0.08886860000000001 0.24375 0  0.307812 0.338778 0  0.307812 0.292227 0  0.33216 0.279164 0  0.387888 0.266414 0  0.264063 0.31948 0  0.110937 0.07598340000000001 0  0.242188 0.07598340000000001 0  0.319914 0.11839 0  0.340625 0.1 0  0.334448 0.133793 0  0.329687 0.108539 0  0.346259 0.118491 0  0.360334 0.173636 0  0.327539 0.205033 0  0.132812 0.288712 0  0.362436 0.278836 0  0.368105 0.259418 0  0.4125 0.41 0  0.329687 0.324017 0  0.329687 0.292306 0  0.285938 0.318952 0  0.417187 0.338778 0  0.324481 0.14148 0  0.351562 0.106771 0  0.40625 0.1 0  0.341028 0.168342 0  0.319221 0.190479 0  0.335292 0.184501 0  0.305563 0.20794 0  0.220313 0.31948 0  0.132812 0.332772 0  0.0865876 0.311259 0  0.0598995 0.302453 0  0.0906541 0.343255 0  0.353543 0.255837 0  0.36574 0.237633 0  0.405007 0.254279 0  0.275795 0.352123 0  0.4125 0 0  0.35493 0.137394 0  0.366563 0.120618 0  0.35917 0.205246 0  0.198438 0.318952 0  0.0626109 0.263892 0  0.40625 0.3 0  0.354809 0.155936 0  0.386512 0.146872 0  0.373101 0.159939 0  0.384375 0.1 0  0.343394 0.19929 0  0.350682 0.185683 0  0.368101 0.189748 0  0.344016 0.221511 0  0.391108 0.213329 0  0.376279 0.204783 0  0.398843 0.182768 0  0.375804 0.222746 0  0.390665 0.196958 0  0.394004 0.23518 0  0.359883 0.222828 0  0.419908 0.204359 0  0.404243 0.204783 0  0.412615 0.224526 0  0.20625 0.41 0  0.165625 0.325257 0  0.0347982 0.244954 0  0.379558 0.247154 0  0.34165 0.147603 0  0.372264 0.136992 0  0.388988 0.121989 0  0.373437 0.108554 0  0.351562 0.31948 0  0.391367 0.16527 0  0.399572 0.223324 0  0.452011 0.227371 0  0.40877 0.239392 0  0.431491 0.237337 0  0.421224 0.250459 0  0.449619 0.262098 0  0.418865 0.276779 0  0.437063 0.252274 0  0.415673 0.263227 0  0.430988 0.266772 0  0.402767 0.273419 0  0.452967 0.244883 0  0.428125 0.3 0  0.408502 0.286186 0  0.384375 0.3 0  0.392267 0.285807 0  0.465927 0.219339 0  0.43489 0.283846 0  0.376424 0.286289 0  0.625 0.3 0  0.473533 0.205186 0  0.461713 0.255517 0  0.5375 0.3 0  0.465725 0.235405 0  0.44631 0.201425 0  0.471875 0.3 0  0.494307 0.227729 0  0.459448 0.206736 0  0.462294 0.180792 0  0.478933 0.227536 0  0.486793 0.21381 0  0.486322 0.251373 0  0.50065 0.215318 0  0.54005 0.175389 0  0.474633 0.189893 0  0.512916 0.208697 0  0.49531 0.199967 0  0.475889 0.175275 0  0.625 0.1 0  0.459311 0.153933 0  0.513645 0.242704 0  0.392892 0.248539 0  0.374815 0.271913 0  0.365974 0.14871 0  0.395312 0.109184 0  0.417061 0.123981 0  0.483196 0.277003 0  0.381967 0.179632 0  0.429898 0.219374 0  0.433473 0.206165 0  0.43149 0.181038 0  0.444208 0.215487 0  0.472985 0.247309 0  0.49375 0.3 0  0.475579 0.262714 0  0.49916 0.274293 0  0.501175 0.184809 0  0.514164 0.225681 0  0.543648 0.214977 0  0.5341630000000001 0.23481 0  0.527396 0.216171 0  0.5375 0.1 0  0.534548 0.202315 0  0.561545 0.192513 0  0.5494289999999999 0.201221 0  0.570923 0.218346 0  0.412582 0.149833 0  0.489327 0.264745 0  0.502439 0.254775 0  0.462391 0.271166 0  0.496775 0.241732 0  0.5294410000000001 0.268606 0  0.482812 0.291099 0  0.46879 0.285038 0  0.452663 0.284065 0  0.51789 0.257882 0  0.53408 0.252026 0  0.560142 0.243543 0  0.545708 0.243474 0  0.547532 0.229019 0  0.55282 0.265323 0  0.398971 0.153424 0  0.400349 0.135684 0  0.410135 0.168145 0  0.428823 0.161323 0  0.415266 0.183779 0  0.329687 0.0810483 0  0.395312 0.0612217 0  0.373437 0.318952 0  0.439062 0.324017 0  0.561816 0.229354 0  0.585029 0.239287 0  0.431827 0.139854 0  0.446796 0.168929 0  0.351562 0.07598340000000001 0  0.395313 0.318944 0  0.54337 0.150762 0  0.460937 0.31948 0  0.418412 0.137529 0  0.428125 0.1 0  0.442783 0.152332 0  0.450742 0.134294 0  0.373437 0.0805201 0  0.384383 0.342558 0  0.482812 0.318952 0  0.429239 0.127457 0  0.444274 0.117405 0  0.426548 0.113815 0  0.49375 0.1 0  0.488954 0.113984 0  0.457973 0.121842 0  0.471621 0.137346 0  0.515625 0.325257 0  0.48125 0.41 0  0.417187 0.07598340000000001 0  0.496363 0.126778 0  0.479043 0.155715 0  0.439062 0.0805201 0  0.481795 0.126919 0  0.471875 0.1 0  0.489227 0.142159 0  0.515625 0.1 0  0.520062 0.147117 0  0.501244 0.161791 0  0.505431 0.112984 0  0.505344 0.14029 0  0.526563 0.119081 0  0.5181750000000001 0.131908 0  0.539868 0.136937 0  0.460937 0.108383 0  0.474242 0.114415 0  0.460937 0.0810483 0  0.487841 0.167168 0  0.526563 0.0612217 0  0.526563 0.106406 0  0.537619 0.112743 0  0.58125 0.1 0  0.559375 0.1 0  0.482812 0.08105569999999999 0  0.471883 0.0587655 0  0.570312 0.129396 0  0.548437 0.07598340000000001 0  0.504687 0.08105569999999999 0  0.49375 0.0470127 0  0.570312 0.112663 0  0.592798 0.12103 0  0.553986 0.12103 0  0.570312 0.0805201 0  0.48125 0 0  0.114787 0.2 0  0.160769 0.284765 0  0.175816 0.288361 0  0.162602 0.116048 0  0.154687 0.07598340000000001 0  0.176562 0.0805201 0  0.0598995 0.147547 0  0.307812 0.109924 0  0.291279 0.117157 0  0.278491 0.112989 0  0.285937 0.07598340000000001 0  0.307812 0.0805201 0  0.296928 0.196743 0  0.318141 0.218507 0  0.330208 0.227509 0  0.301397 0.225668 0  0.302706 0.241401 0  0.292574 0.21424 0  0.282762 0.230935 0  0.284351 0.244775 0  0.269553 0.23261 0  0.278572 0.217242 0  0.226924 0.342606 0  0.446928 0.185396 0  0.515625 0.3 0  0.504687 0.288879 0  0.515256 0.276534 0  0.529479 0.285328 0  0.58125 0.3 0  0.541969 0.272936 0  0.559375 0.3 0  0.556796 0.282529 0  0.543473 0.287206 0  0.581429 0.267774 0  0.566728 0.271171 0  0.570869 0.255585 0  0.577404 0.283865 0  0.603125 0.3 0  0.597531 0.28035 0  0.570312 0.338778 0  0.592188 0.292492 0  0.603513 0.256094 0  0.614063 0.286265 0  0.610329 0.27064 0  0.632708 0.251285 0  0.657223 0.261594 0  0.618789 0.257807 0  0.614188 0.22987 0  0.630935 0.265614 
[...]
<PointData  Vectors="v"> 
	<DataArray  type="Float64"  Name="v"  NumberOfComponents="3" format="ascii">
0.0 0.0 0.0 0.0 0.0 0.0 0.0 0.0 0.0 0.0 0.0 0.0 0.7962646700271465 -0.19603489840337154 0.0 0.8403733684109082 0.20770679974652667 0.0 1.1636140347778412 -0.056164593261864626 0.0 1.141512277432932 0.0592836880295806 0.0 0.0 0.0 0.0 0.0 0.0 0.0 0.0 0.0 0.0 0.0 0.0 0.0 0.0009052252842004805 0.0008780861739141132 0.0 0.002155011319831548 0.0035967912023098427 0.0 0.001016105161182877 0.0017714506871861777 0.0 0.0 0.0 0.0 0.0 0.0 0.0 0.0 0.0 0.0 0.0 0.0 0.0 0.0 0.0 0.0 0.0 0.0 0.0 0.0 0.0 0.0 0.0 0.0 0.0 0.0 0.0 0.0 0.0 0.0 0.0 0.0 0.0 0.0 0.0 0.0 0.0 0.0 0.0 0.0 0.0 0.0 0.0 0.0 0.0 0.0 0.0 0.0 0.0 0.0 0.0 0.0 0.0 0.0 0.0 -0.00018898066128466488 0.00032349198279347835 0.0 -0.002001285751643528 0.0036023050636103914 0.0 0.0007894789021366914 -0.0006888415820947507 0.0 0.0 0.0 0.0 0.0 0.0 0.0 0.0 0.0 0.0 0.0 0.0 0.0 0.0 0.0 0.0 0.7613295789039336 -0.0013967477909586346 0.0 1.2755297847720288 0.0831841342577863 0.0 1.2661737082396565 -0.07706607271243776 0.0 0.0 0.0 0.0 1.3536174249440995 -0.13283030386721684 0.0 1.358112125053106 0.15500026380242063 0.0 0.0 0.0 0.0 0.0 0.0 0.0 1.0 0.0 0.0 0.0 0.0 0.0 0.0 0.0 0.0 0.0 0.0 0.0 0.8426271209795971 -0.23197956496511862 0.0 1.1515084237012916 -0.34431305066570883 0.0 0.8637532172911387 0.2292109403453346 0.0 1.1661812076961378 0.3540716954142444 0.0 0.42823557244607446 -0.004104667008448344 0.0 0.16615345095297585 0.06265005235765972 0.0 0.1686713547042049 -0.060370227652779204 0.0 -0.02769105021761927 -0.038658891645847 0.0 -0.026232856781323585 0.036490708150782133 0.0 0.33440411983098967 -0.27999097523658495 0.0 0.8579773875888566 -0.6735624640018161 0.0 0.6400665463156752 -0.6882800053423076 0.0 1.2062636015839119 -0.613360544115964 0.0 0.4169235226716161 -0.06803424566744411 0.0 0.33042279626954313 0.26860048583867674 0.0 0.6427689061247559 0.6691994845754055 0.0 1.1850652527793413 0.6153163290199345 0.0 0.407153066260373 0.07224546563814922 0.0 1.3131224463271942 0.26101567207158227 0.0 0.3271059716811256 0.254079943276875 0.0 1.3027162802081549 -0.240310857378019 0.0 0.3161356679292446 -0.24142416610159356 0.0 -0.033718272232287856 -0.017158106468683147 0.0 1.1250166053899544 -0.39881111940100417 0.0 1.0933210425019786 -0.7244311126402438 0.0 0.8519754179347748 0.7706397258405281 0.0 1.1313196665604972 0.39950439587110864 0.0 0.7594038210797631 0.18589284984669782 0.0 0.10937447252050368 0.05191295001715972 0.0 0.7694353685916359 -0.18203744279082268 0.0 0.11147859781388096 -0.05026947117170184 0.0 -0.02982081077913184 0.019186596283408342 0.0 1.0274278825052874 0.7188036211562268 0.0 0.4423263275348692 0.5290553045728376 0.0 0.45743624164075447 0.1772793878728427 0.0 0.2742358178443283 0.0695451277458314 0.0 0.46494291303008206 -0.17419956576558257 0.0 0.27832384122890036 -0.06490046038313953 0.0 -0.07559051937522802 0.002149482308394193 0.0 0.9654144923300586 0.3173602063251086 0.0 1.2604309909650155 0.31321244158340994 0.0 1.2448284418480668 0.28885061428986536 0.0 1.2349580152390454 -0.3075883513954845 0.0 1.248236839284049 -0.2809301706141329 0.0 1.2199766648758934 0.3309477081826671 0.0 1.226446773409891 -0.32270072976218694 0.0 0.4429486454635103 -0.5447157252181414 0.0 0.8020368728847687 -0.13973784769619205 0.0 0.6715616161390587 -0.4198273890728938 0.0 0.8772991592418216 0.5937421964088508 0.0 0.7992872297650886 0.14269620253750168 0.0 0.6764443121049732 0.4200211876305074 0.0 1.292647759312562 -0.007147424039965009 0.0 0.29467331863936397 0.14540702684261556 0.0 0.2952111245938495 -0.13501456531458905 0.0 -0.05466609503960223 -0.013109126798696448 0.0 1.2649732988667826 0.4717661309362111 0.0 0.7685468622429759 0.1210420800207068 0.0 1.2612454731981064 -0.4733168937895051 0.0 0.7893621204727607 -0.11511261881310171 0.0 1.2754785531882766 0.41799998765707885 0.0 1.2538841245765788 0.40110347622353343 0.0 1.271763482207294 -0.41428408449722637 0.0 1.2448382739192294 -0.3811090508020886 0.0 0.5835495364317485 -0.1606594963484348 0.0 0.796477200806168 -0.33191334952387985 0.0 1.010352479347075 0.6037184581536312 0.0 0.5917315895993528 0.15047654568838212 0.0 0.8125222263718485 0.33159815290081884 0.0 0.7457465373433265 0.08106559821486216 0.0 0.782931360464031 -0.07300576056367868 0.0 0.052547712181395145 -0.022182084148489847 0.0 1.3633486749468862 0.20758571505277346 0.0 0.929887796365679 -0.3222659549875351 0.0 1.3445819441610025 -0.18986298155122588 0.0 0.41033463441311235 0.0914963602886125 0.0 0.42764966652864983 -0.07844254770178796 0.0 -0.05467849229385955 -0.008172080092706814 0.0 1.0572823458103078 0.35396602288530804 0.0 0.9431014463563803 0.3913986021699954 0.0 0.9219669995676703 0.11255345579416692 0.0 0.8245098487219347 -0.0866970625809668 0.0 1.306854218271514 0.01668892101049553 0.0 1.027595132405035 -0.3452091199019017 0.0 1.0745858085795024 -0.5703875834224399 0.0 0.9301985074756561 -0.3894631761843941 0.0 0.9975470133673338 -0.43870762611435266 0.0 0.9330074168418604 -0.5429156844499088 0.0 0.8655871119220138 -0.40658918740024375 0.0 1.2732575539834878 0.23299692224802182 0.0 1.2716011764688093 -0.21937861098448444 0.0 0.8526901331840925 -0.23570030194657604 0.0 0.8790991504373082 -0.3100239191623754 0.0 0.8529379089566068 -0.2991287576959422 0.0 0.8514580837897937 -0.2564477744564129 0.0 0.8542532830117215 -0.25283887095024266 0.0 0.8963287367355762 -0.31952461700813833 0.0 1.3290608436239695 0.3156369104503326 0.0 1.08446789940034 -0.002381060933612456 0.0 1.314442750890679 0.36235736672998264 0.0 1.321520105253332 -0.29592752331248845 0.0 0.0 0.0 0.0 0.0 0.0 0.0 1.2996108969138689 -0.3494121864877018 0.0 0.7142734189598435 -0.26743266926775794 0.0 0.8204181103181067 -0.21086104725043964 0.0 0.8711835359061014 -0.11083754489151025 0.0 0.8624606357204658 -0.16384997393180842 0.0 0.9375 0.0 0.0 0.7500000000000001 0.0 0.0 0.7224483244351174 0.265190917859486 0.0 0.8240143855845614 0.2000484693973557 0.0 0.7499999999999999 0.0 0.0 0.8697027086613457 0.12773374644323274 0.0 0.9287070184306088 0.04277296342376922 0.0 0.848108037337798 0.0449747948807093 0.0 -0.03499212912093923 -0.011669627462967092 0.0 0.09208963898791026 -0.017516790881602164 0.0 1.1149363003249095 0.5547143514601238 0.0 1.018943869256152 0.47307981367342794 0.0 0.8809412750976606 0.24540224454321677 0.0 1.199843652275291 0.13921149728068252 0.0 1.328780470999663 0.059920523736383104 0.0 0.353814190831675 0.03815276004964929 0.0 1.3560653993380523 0.10301574860123909 0.0 0.7142153913037137 0.05400085099785443 0.0 1.1709665008925836 0.10039512385871915 0.0 0.5153648077913741 0.01591486753870526 0.0 0.4971076601467977 0.0301682275771734 0.0 0.07049618644044033 0.013046806729896129 0.0 0.956570635997114 0.03464929286813658 0.0 0.2582640226697496 0.022058509835640915 0.0 0.163987650769432 0.008264140747810582 0.0 0.26863252705452395 0.01448620272312665 0.0 0.6669648150649874 -0.0047799063619669065 0.0 0.4989748726198875 0.007025113947604313 0.0 1.31567178417403 0.0193682960498637 0.0 0.5423027781042931 0.062196730226220465 0.0 1.2304739204877606 -0.141872983135942 0.0 0.2029734624361515 -0.03765136668276003 0.0 1.2057300416361465 0.17364333621084255 0.0 0.8828037633638498 0.17967154604817054 0.0 0.7011669216588315 -0.16797329241277498 0.0 1.115517764568247 -0.09412629389496655 0.0 1.0386071001447967 -0.22371118900712494 0.0 0.8637745237458672 -0.18272057864428645 0.0 0.8754225810030908 -0.025680860327849792 0.0 0.44034329114636056 -0.048121477776280654 0.0 0.2915322150272967 -0.03305520685048911 0.0 1.3289984087374782 -0.0418127726504322 0.0 0.20943880924541058 -0.013378415172297603 0.0 1.355471068779185 -0.08625042977665613 0.0 0.19242892004629442 -0.018973212433695492 0.0 0.5363829876809552 -0.015630058255998863 0.0 -0.001245579610605696 -0.011167244618321071 0.0 0.5729791075717399 -0.03142860164192713 0.0 0.8788535521170858 0.2970765196793292 0.0 0.8795125540079646 0.41068420549567686 0.0 0.8850490736671052 0.27028142767839436 0.0 0.9122092040134447 0.10978216892170284 0.0 0.8651485042622428 0.22323652104618139 0.0 0.9046844283733418 0.303652131223684 0.0 0.8572013809622554 0.23346685012760085 0.0 0.8019942378899044 0.18333833205083302 0.0 0.8670351886766453 0.161475224398982 0.0 0.0 0.0 0.0 0.8414955674269147 0.17664209188659255 0.0 0.8706375600140203 0.17094377896313917 0.0 1.2131558237239404 0.04984161834445879 0.0 1.2374513857023697 0.06507077247282063 0.0 0.8902930215205075 0.0133080718666714 0.0 0.5942415105206307 -0.026002933581486868 0.0 1.2798369914827978 0.14722641850122453 0.0 0.7176510264469689 -0.1737582057903474 0.0 1.178004143743865 -0.1644349515458819 0.0 0.9990234568746735 -0.01971044295112209 0.0 1.3236162368280413 -0.007668578871896639 0.0 0.5862532972472014 -5.107387342674527e-05 0.0 1.2206476032550972 -0.012524717924343672 0.0 0.9838485334339514 0.00928721223001855 0.0 -0.003990757672944448 -0.007088334424950381 0.0 -0.09629689888970251 0.0008479672904261529 0.0 0.9448037059665257 0.34116819984091107 0.0 0.8778347562712683 -0.018391894264031858 0.0 0.4279527417312135 -0.008274132692780298 0.0 0.0 0.0 0.0 1.3287139355248132 0.037572208326720355 0.0 1.2124817605197287 0.025025986953670788 0.0 1.317246667818522 0.11472419073409493 0.0 1.252536088354337 -0.044219871033383276 0.0 0.4144917337612889 -0.01370764833491048 0.0 1.2284711191623574 0.010558825739072193 0.0 1.2912206253015326 0.056965699669533576 0.0 0.04161695544712694 -0.009783835748863021 0.0 -0.0826512971144243 -0.00527770291082821 0.0 -0.06755389064690173 -0.0075709795732757205 0.0 -0.08149642018669934 0.0026988335320785165 0.0 1.1857155379458257 0.21977400000225794 0.0 0.7774042576528921 0.19844165671925393 0.0 0.7778921475199224 0.15418527124404235 0.0 0.7857257057110848 0.10686659758254385 0.0 0.6205504306819974 0.11094937478608013 0.0 0.3535984220880132 0.001326921385041601 0.0 0.09365135022981859 0.0035638298272629015 0.0 0.36486369348696085 -0.020707294023130724 0.0 1.0719614305274807 0.07679181599922481 0.0 0.0 0.0 0.0 0.5206903281740249 0.011454954668779795 0.0 0.9322854263600452 0.029248353892425135 0.0 -0.1093178968670514 0.00026275867921223207 0.0 1.0969241942292816 0.26703234580224366 0.0 0.9003227276072159 0.11233968715450297 0.0 1.280200062964823 -0.0494250047462617 0.0 0.18762654120395988 -0.0036366831321304927 0.0 0.359762754919675 0.017801021680837352 0.0 0.1439241457840476 0.00010481695872117651 0.0 1.302990796348708 0.03931252502875019 0.0 -0.10613309584979025 -0.0018435519119376403 0.0 -0.07731654526462113 -0.00667891342244153 0.0 -0.09751136972042826 -0.004782583797312265 0.0 -0.04339885215048335 0.006620276284487695 0.0 -0.09536123517049078 0.0007239938547793044 0.0 -0.11569794985864933 -0.00028305012699072953 0.0 -0.06633546491922401 -0.0021897782669314365 0.0 -0.041237281142827376 0.0030720303388120755 0.0 -0.11940219387060677 -0.002285611184035575 0.0 0.07538232478169588 -0.0023030885416895123 0.0 -0.03868046175003825 0.005289595011329993 0.0 -0.12275621657298104 -0.0011732175228113871 0.0 -0.12148740558218019 -0.0009548696981481363 0.0 -0.023643478893240987 -0.002638690798148849 0.0 0.0 0.0 0.0 0.9463464517414415 0.255432949076308 0.0 0.9513508335203366 0.04006705719860161 0.0 0.22508823367763445 -0.0046638542278571275 0.0 0.3095745762128132 -0.004436061727504019 0.0 0.545126236878094 0.020958084112987236 0.0 0.9127514402441113 0.04303543348912832 0.0 1.1922253144749018 0.03459973383283608 0.0 1.3537561630338237 0.014705730991469683 0.0 0.08886216762252513 0.00213951448501954 0.0 -0.03578508206205088 -0.00021199042629724388 0.0 0.022758999556551807 -0.01119807206661573 0.0 0.1354002372631791 -0.008965148278987943 0.0 0.1255122434843323 -0.013795757817788771 0.0 0.3153265676056263 -0.023345051064915624 0.0 0.5748249204153464 -0.05061796993940354 0.0 0.8592118133916545 -0.052372951650142274 0.0 0.36647004258285776 -0.03165574080537841 0.0 0.5550222148442212 -0.035891107809398894 0.0 0.6501924495508616 -0.047691637087062144 0.0 0.7700099122428101 -0.041110681586439164 0.0 0.25891102350250855 -0.027875719001218536 0.0 1.2726877679797048 -0.06447884353588842 0.0 1.0583222612056478 -0.05179105252768901 0.0 1.2864141782349343 -0.029074657930910356 0.0 1.0488346230902494 -0.039733489186844724 0.0 -0.04257941208168862 -0.007923564892839574 0.0 1.0267918142466936 -0.06679997414097667 0.0 1.0600110395173827 -0.030103808734668492 0.0 1.2285298741347213 -0.1050791791283854 0.0 -0.10840663200431469 -0.0009699251053041887 0.0 0.46002040793412674 -0.04514053700274989 0.0 1.2523514605946358 -0.10513182825553288 0.0 0.131560542414036 -0.021015353147071352 0.0 -0.12166789005974342 -0.0003847656611777313 0.0 1.2615817815765296 -0.08691496808350473 0.0 0.0635260244089542 -0.019339348132231697 0.0 -0.11117687702514055 -0.0017293082604237563 0.0 -0.025822146046745174 0.010904914231938368 0.0 0.04588642113447138 -0.016413585009531294 0.0 -0.06729179121977337 -0.006367682235454286 0.0 0.41836876056582445 -0.04789639155084687 0.0 -0.04712648424249459 -0.008630198232052275 0.0 0.11142940344031324 0.03306293650927217 0.0 -0.08202476292447317 0.006985795803605188 0.0 -0.07231416989349847 -0.0036622775943879783 0.0 -0.09915749277070171 0.0027186401357198802 0.0 0.03983174497987285 0.018452965587375962 0.0 1.2141225297781388 0.10067295816615449 0.0 0.3283572104790246 0.03802064958913531 0.0 0.3049801290646231 -0.04280946830179394 0.0 0.2558383274093857 -0.01042103015038175 0.0 0.708176857569515 -0.0206666625269435 0.0 0.3070854352439485 0.005608269756928522 0.0 1.1767958291351208 0.05302947276977168 0.0 0.8893934677167187 0.06109928951676514 0.0 0.9289075818499926 -0.08200697650749907 0.0 -0.04731810804417452 -0.004338057602463168 0.0 -0.058684676515672225 -0.003666552563107415 0.0 -0.11876012198400743 -0.001360849019032334 0.0 -0.04520253832767369 0.004253030666070444 0.0 -0.07934731943434399 -0.0039073269740971485 0.0 0.32564582624860344 -0.037735707133332075 0.0 1.2585143466880926 -0.09294996087675927 0.0 0.6257068862888608 -0.060861828746843906 0.0 0.8935294941886226 -0.08486994903341802 0.0 -0.028787343832551285 0.01499252991545344 0.0 0.06150899971814762 -0.020552258735004127 0.0 -0.006493803224273625 -0.011724253592230009 0.0 0.20936601504564487 -0.03611369091631554 0.0 -0.015670049177810404 -0.011607620841687809 0.0 1.252033954926633 0.10629039699028593 0.0 -0.06643614772159598 0.00217985438710524 0.0 -0.01533666297347772 0.014185235280202341 0.0 -0.05113368026497439 0.003575396748920618 0.0 0.05630253175256039 -0.018594649542755665 0.0 0.3381149250955159 0.02463737490960529 0.0 0.6877291505920811 -0.06905926066293301 0.0 0.5072711957225341 -0.05838411755571011 0.0 0.7864737224186745 -0.0677791353248699 0.0 0.26466286274784834 -0.03687671385942119 0.0 0.8196871416608772 -0.08630694659515654 0.0 1.1664106793536628 -0.09037824307725133 0.0 1.0672211831124014 -0.08306028341294448 0.0 1.0403989571741665 -0.07473376412673477 0.0 0.592241970492405 -0.06788355659129734 0.0 0.5043210596453006 -0.06262059095521032 0.0 0.3927835109386878 -0.05522614793656546 0.0 0.36755437049757017 -0.051785354611117766 0.0 0.145704277240289 -0.03011926785403215 0.0 0.788135036287235 -0.0869745376266301 0.0 0.26050155194442 0.014680595635344481 0.0 0.6074983923446685 0.03785890540768012 0.0 0.06762475845916395 0.005967530640838949 0.0 0.17227103873226154 0.01794915744367666 0.0 -0.06992763430102697 0.00023903650533351197 0.0 1.3326052445421501 -0.02434052960626115 0.0 1.217758138393471 0.04119337083788671 0.0 1.355182925111218 -0.011988530508191386 0.0 1.326836272032171 -0.0629280180471492 0.0 0.1710119474256404 -0.03304899993411957 0.0 0.3602758512444736 -0.052905388106752355 0.0 0.5594855549322696 0.046958225919595344 0.0 0.08774413414980294 0.01597918981022569 0.0 1.308078703175469 0.0041191298107296 0.0 1.3482467629501893 -0.03286933866142841 0.0 0.5161562338564745 0.07034795465800253 0.0 1.327294179562065 -0.07631552653604094 0.0 0.5893491848311068 0.04336756196200278 0.0 1.2824444968740174 0.07211935030239894 0.0 0.33351769009896676 0.03391516580872622 0.0 0.704683417135255 0.06416830664360686 0.0 1.334590601212747 0.024193128896440062 0.0 1.2313301393385232 -0.024127584761836046 0.0 1.3181401549874008 -0.0862900600295115 0.0 0.825410941016198 0.06154778616264023 0.0 1.0479877270020876 0.07926377797673878 0.0 1.1071528722803337 0.07252787618352699 0.0 1.266256981746569 0.09902223154887464 0.0 1.1282702103786075 0.09797784346239531 0.0 0.9750775770427088 0.08172994228768807 0.0 0.6692686158382578 0.06804689200838836 0.0 1.2741455007756572 -0.08969689562960896 0.0 0.0 0.0 0.0 1.3077841707883573 0.057927578771708274 0.0 0.9168041540348739 0.0904763575701263 0.0 0.32575487740006814 0.04301392261037108 0.0 1.3157138358415152 0.07182698386953017 0.0 0.8994848408426045 0.08611849500971694 0.0 1.270429619879024 0.09171894146160947 0.0 0.5984150484812518 0.06730027237172277 0.0 1.260929880424914 0.10403544419514262 0.0 0.5486091180069592 0.06974389897095983 0.0 0.2558614236020928 0.0419281913722038 0.0 1.1459773269709728 0.10230337738931441 0.0 0.6612820935844519 0.0760060627285771 0.0 1.071303315963849 0.10415883076461084 0.0 0.8439721196554442 0.09165759403015816 0.0 0.7742846847264958 0.08988371565502719 0.0 1.1955517632967794 0.08913974135830055 0.0 1.1159997263130386 0.09243391932042172 0.0 1.3059191597811006 0.08218097440090967 0.0 0.15597472732870218 0.030266765084651863 0.0 1.1514251468082657 0.07907019876818991 0.0 1.215249003212137 0.10699620893885062 0.0 1.1558060512888966 0.10795402049576511 0.0 1.231469933212266 0.10632787900974153 0.0 1.2418243757645597 0.10798599576647964 0.0 1.2906777528987707 0.08738746876787089 0.0 1.182831783523695 0.068599986968136 0.0 0.9421621101674068 0.10162497387144202 0.0 1.2281382265629845 0.0922758271059669 0.0 1.2783114752727702 0.090942021391114 0.0 1.044558856186285 0.06536893081518944 0.0 1.1598963811923904 0.10922114099506856 0.0 1.0757684550266764 0.10712872245865898 0.0 1.057602742324797 0.1065376375230333 0.0 1.231030358453582 0.09614067907558702 0.0 0.0 0.0 0.0 0.6445069330253621 -0.005708211430915432 0.0 1.0777550547180064 0.4341834861561549 0.0 1.1668074631691374 0.4222069675716336 0.0 1.082352144289852 -0.4268187635684629 0.0 0.8656672640663277 -0.22703315336444138 0.0 0.9789686697059324 -0.2555032326208363 0.0 0.8923790454118997 -0.08504843349305129 0.0 1.2230846053962892 -0.05218044995420827 0.0 1.0818367060559742 -0.06389780284917128 0.0 1.1989652863447087 -0.10433065029036373 0.0 1.2651041755846415 -0.08443658188995527 0.0 1.3152284002298738 -0.05359633425477072 0.0 -0.08360889786346747 -0.0027158474379258995 0.0 -0.0503199341279842 0.007312012302563724 0.0 0.0011094862274544878 0.00966188961387906 0.0 0.0009251994636754021 0.011622686767159914 0.0 0.14798283907707271 0.026555903784990304 0.0 -0.05742357893067767 0.007897934407502766 0.0 0.061883435144149304 0.02159294400793704 0.0 0.21882544538718482 0.03706066351749889 0.0 0.08574707522647379 0.03824481820351698 0.0 -0.036418835251703606 0.01484780388552414 0.0 1.0347645106349983 0.16081341744043967 0.0 -0.06961019350444635 0.0050935034865795484 0.0 1.2556637435800944 -0.10000000271876197 0.0 1.142689601325285 -0.09738018576917092 0.0 0.9517101323942632 -0.0913842581353823 0.0 1.1054526499997692 -0.10128145894208813 0.0 1.241800722048573 -0.10704621511883944 0.0 0.9151688530351836 -0.09427396892152876 0.0 1.249073756380797 -0.10670913083355557 0.0 1.0802849086771684 -0.104383065444446 0.0 1.1349727813624964 -0.10426301599592475 0.0 0.8678590195596906 -0.09444475621884237 0.0 0.9105841256251384 -0.09652755890218619 0.0 0.6303091320878098 -0.07634296716600948 0.0 1.1074529632989674 -0.10747514738364944 0.0 1.2357480421699154 -0.10744136081860314 0.0 1.0728721927294407 -0.10590936859175448 0.0 1.168882068546132 -0.08627942142393914 0.0 1.1960632882894466 -0.10930633824021464 0.0 0.6880584158273696 -0.08172539704945152 0.0 1.1446791998263712 -0.10716808718438264 0.0 0.9443860501725627 -0.09955253708497779 0.0 0.6443