<?xml version="1.0"?>
<VTKFile type="UnstructuredGrid"  version="0.1"  >
<UnstructuredGrid>
<Piece  NumberOfPoints="1289" NumberOfCells="2413">
<Points>
<DataArray  type="Float64"  NumberOfComponents="3"  format="ascii">0 0 0  0 0.41 0  2.2 0.41 0  2.2 0 0  0.1 0.1 0  0.1 0.3 0  0.8 0.3 0  0.8 0.1 0  0.25 0.2 0  0.248976 0.210065 0  0.245948 0.219718 0  0.241038 0.228563 0  0.234448 0.23624 0  0.226448 0.242432 0  0.217365 0.246888 0  0.207571 0.249423 0  0.197468 0.249936 0  0.187467 0.248404 0  0.17798 0.24489 0  0.169395 0.239539 0  0.162062 0.232569 0  0.156283 0.224265 0  0.152293 0.214968 0  0.150257 0.205058 0  0.150257 0.194942 0  0.152293 0.185032 0  0.156283 0.175735 0  0.162062 0.167431 0  0.169395 0.160461 0  0.17798 0.15511 0  0.187467 0.151596 0  0.197468 0.150064 0  0.207571 0.150577 0  0.217365 0.153112 0  0.226448 0.157568 0  0.234448 0.16376 0  0.241038 0.171437 0  0.245948 0.180282 0  0.248976 0.189935 0  1.1 0 0  1.1 0.41 0  0.1 0.2 0  0.45 0.1 0  0.45 0.3 0  0.55 0 0  0.275 0.1 0  0.275 0.3 0  0.275 0 0  0.55 0.41 0  0 0.205 0  0.825 0 0  0.825 0.41 0  0.275 0.41 0  0.1 0.15 0  0.1875 0.1 0  0.1 0.25 0  0.1875 0.3 0  0.132322 0.2 0  0.241426 0.253518 0  0.241426 0.146482 0  0.264574 0.17974 0  0.264574 0.22026 0  0.138434 0.187348 0  0.153372 0.150948 0  0.148413 0.164094 0  0.176495 0.136535 0  0.22768 0.143571 0  0.138434 0.212652 0  0.148413 0.235906 0  0.176495 0.263465 0  0.22768 0.256429 0  0.23125 0.3 0  0.24769 0.24094 0  0.23125 0.1 0  0.24769 0.15906 0  0.26253 0.193641 0  0.190482 0.137872 0  0.166753 0.146661 0  0.157737 0.244461 0  0.190482 0.262128 0  0.203107 0.261264 0  0.253635 0.22977 0  0.203107 0.138736 0  0.253635 0.17023 0  0.261028 0.206206 0  0.167707 0.251809 0  0.143629 0.224191 0  0.215302 0.2591 0  0.270465 0.245894 0  0.215302 0.1409 0  0.270465 0.154106 0  0.284052 0.202587 0  0.14375 0.3 0  0.209375 0.3 0  0.225966 0.278501 0  0.209375 0.1 0  0.225966 0.121499 0  0.211613 0.273759 0  0.211613 0.126241 0  0.143629 0.175809 0  0.1 0.175 0  0.133484 0.164832 0  0.144491 0.249539 0  0.1 0.225 0  0.133484 0.235168 0  0.3625 0.3 0  0.25691 0.253381 0  0.25691 0.146619 0  0.277205 0.188698 0  0.184724 0.275712 0  0.237372 0.268285 0  0.184724 0.124288 0  0.237372 0.131715 0  0.197578 0.273149 0  0.193656 0.286994 0  0.197578 0.126851 0  0.193656 0.113006 0  0.122953 0.187671 0  0.118362 0.153758 0  0.155372 0.258107 0  0.122953 0.212329 0  0.118362 0.246242 0  0.276394 0.27264 0  0.276394 0.12736 0  0.280965 0.170013 0  0.253125 0.3 0  0.14375 0.1 0  0.253125 0.1 0  0.269489 0.26014 0  0.269489 0.13986 0  0.303639 0.184297 0  0.165625 0.3 0  0.134742 0.273113 0  0.257831 0.274737 0  0.255279 0.128499 0  0.3625 0.1 0  0.165625 0.1 0  0.162031 0.132368 0  0.134955 0.126405 0  0.149334 0.125568 0  0.142936 0.139597 0  0.12695 0.140259 0  0.242514 0.285501 0  0.242514 0.114499 0  0.1 0.125 0  0.117483 0.12555 0  0.11154 0.139776 0  0.121875 0.1 0  0.109143 0.1125 0  0.126805 0.114 0  0.220313 0.29129 0  0.351562 0.287369 0  0.207222 0.2866 0  0.220312 0.10871 0  0.1375 0 0  0.20625 0 0  0.207222 0.1134 0  0.11722 0.17118 0  0.1 0.1625 0  0.0778409 0.16875 0  0.0862762 0.15625 0  0 0.15375 0  0 0.1025 0  0.11722 0.22882 0  0.1 0.2375 0  0 0.3075 0  0.0862762 0.23125 0  0.0598995 0.222547 0  0.0860223 0.2125 0  0.289584 0.181469 0  0.300267 0.16446 0  0.163832 0.269071 0  0.149597 0.273325 0  0.1 0.275 0  0.268498 0.285953 0  0.31875 0.3 0  0.294154 0.254672 0  0.296875 0.3 0  0.293558 0.271845 0  0.285095 0.286799 0  0.324298 0.264316 0  0.307866 0.263745 0  0.317093 0.234901 0  0.315485 0.281219 0  0.316547 0.250625 0  0.344693 0.243731 0  0.331592 0.251147 0  0.35129 0.270663 0  0.338689 0.263683 0  0.340625 0.3 0  0.249849 0.264383 0  0.265097 0.11422 0  0.284688 0.156136 0  0.242188 0.324017 0  0.0856613 0.2625 0  0.132812 0.0612217 0  0.264062 0.0612217 0  0.198437 0.07598340000000001 0  0.0860223 0.1375 0  0.0794526 0.191089 0  0.285228 0.140397 0  0.298655 0.148737 0  0.31875 0.1 0  0.327335 0.15374 0  0.296875 0.1 0  0.312289 0.155283 0  0.313348 0.135607 0  0.321802 0.173916 0  0.298433 0.134116 0  0.112124 0.2625 0  0.127526 0.259083 0  0.121875 0.3 0  0.0682687 0.241503 0  0.1 0.2875 0  0.117762 0.28125 0  0.107813 0.3 0  0.103906 0.313849 0  0.0778409 0.28125 0  0.1375 0.41 0  0.0862762 0.29375 0  0.08886860000000001 0.24375 0  0.307812 0.338778 0  0.307812 0.292227 0  0.33216 0.279164 0  0.387888 0.266414 0  0.264063 0.31948 0  0.110937 0.07598340000000001 0  0.242188 0.07598340000000001 0  0.319914 0.11839 0  0.340625 0.1 0  0.334448 0.133793 0  0.329687 0.108539 0  0.346259 0.118491 0  0.360334 0.173636 0  0.327539 0.205033 0  0.132812 0.288712 0  0.362436 0.278836 0  0.368105 0.259418 0  0.4125 0.41 0  0.329687 0.324017 0  0.329687 0.292306 0  0.285938 0.318952 0  0.417187 0.338778 0  0.324481 0.14148 0  0.351562 0.106771 0  0.40625 0.1 0  0.341028 0.168342 0  0.319221 0.190479 0  0.335292 0.184501 0  0.305563 0.20794 0  0.220313 0.31948 0  0.132812 0.332772 0  0.0865876 0.311259 0  0.0598995 0.302453 0  0.0906541 0.343255 0  0.353543 0.255837 0  0.36574 0.237633 0  0.405007 0.254279 0  0.275795 0.352123 0  0.4125 0 0  0.35493 0.137394 0  0.366563 0.120618 0  0.35917 0.205246 0  0.198438 0.318952 0  0.0626109 0.263892 0  0.40625 0.3 0  0.354809 0.155936 0  0.386512 0.146872 0  0.373101 0.159939 0  0.384375 0.1 0  0.343394 0.19929 0  0.350682 0.185683 0  0.368101 0.189748 0  0.344016 0.221511 0  0.391108 0.213329 0  0.376279 0.204783 0  0.398843 0.182768 0  0.375804 0.222746 0  0.390665 0.196958 0  0.394004 0.23518 0  0.359883 0.222828 0  0.419908 0.204359 0  0.404243 0.204783 0  0.412615 0.224526 0  0.20625 0.41 0  0.165625 0.325257 0  0.0347982 0.244954 0  0.379558 0.247154 0  0.34165 0.147603 0  0.372264 0.136992 0  0.388988 0.121989 0  0.373437 0.108554 0  0.351562 0.31948 0  0.391367 0.16527 0  0.399572 0.223324 0  0.452011 0.227371 0  0.40877 0.239392 0  0.431491 0.237337 0  0.421224 0.250459 0  0.449619 0.262098 0  0.418865 0.276779 0  0.437063 0.252274 0  0.415673 0.263227 0  0.430988 0.266772 0  0.402767 0.273419 0  0.452967 0.244883 0  0.428125 0.3 0  0.408502 0.286186 0  0.384375 0.3 0  0.392267 0.285807 0  0.465927 0.219339 0  0.43489 0.283846 0  0.376424 0.286289 0  0.625 0.3 0  0.473533 0.205186 0  0.461713 0.255517 0  0.5375 0.3 0  0.465725 0.235405 0  0.44631 0.201425 0  0.471875 0.3 0  0.494307 0.227729 0  0.459448 0.206736 0  0.462294 0.180792 0  0.478933 0.227536 0  0.486793 0.21381 0  0.486322 0.251373 0  0.50065 0.215318 0  0.54005 0.175389 0  0.474633 0.189893 0  0.512916 0.208697 0  0.49531 0.199967 0  0.475889 0.175275 0  0.625 0.1 0  0.459311 0.153933 0  0.513645 0.242704 0  0.392892 0.248539 0  0.374815 0.271913 0  0.365974 0.14871 0  0.395312 0.109184 0  0.417061 0.123981 0  0.483196 0.277003 0  0.381967 0.179632 0  0.429898 0.219374 0  0.433473 0.206165 0  0.43149 0.181038 0  0.444208 0.215487 0  0.472985 0.247309 0  0.49375 0.3 0  0.475579 0.262714 0  0.49916 0.274293 0  0.501175 0.184809 0  0.514164 0.225681 0  0.543648 0.214977 0  0.5341630000000001 0.23481 0  0.527396 0.216171 0  0.5375 0.1 0  0.534548 0.202315 0  0.561545 0.192513 0  0.5494289999999999 0.201221 0  0.570923 0.218346 0  0.412582 0.149833 0  0.489327 0.264745 0  0.502439 0.254775 0  0.462391 0.271166 0  0.496775 0.241732 0  0.5294410000000001 0.268606 0  0.482812 0.291099 0  0.46879 0.285038 0  0.452663 0.284065 0  0.51789 0.257882 0  0.53408 0.252026 0  0.560142 0.243543 0  0.545708 0.243474 0  0.547532 0.229019 0  0.55282 0.265323 0  0.398971 0.153424 0  0.400349 0.135684 0  0.410135 0.168145 0  0.428823 0.161323 0  0.415266 0.183779 0  0.329687 0.0810483 0  0.395312 0.0612217 0  0.373437 0.318952 0  0.439062 0.324017 0  0.561816 0.229354 0  0.585029 0.239287 0  0.431827 0.139854 0  0.446796 0.168929 0  0.351562 0.07598340000000001 0  0.395313 0.318944 0  0.54337 0.150762 0  0.460937 0.31948 0  0.418412 0.137529 0  0.428125 0.1 0  0.442783 0.152332 0  0.450742 0.134294 0  0.373437 0.0805201 0  0.384383 0.342558 0  0.482812 0.318952 0  0.429239 0.127457 0  0.444274 0.117405 0  0.426548 0.113815 0  0.49375 0.1 0  0.488954 0.113984 0  0.457973 0.121842 0  0.471621 0.137346 0  0.515625 0.325257 0  0.48125 0.41 0  0.417187 0.07598340000000001 0  0.496363 0.126778 0  0.479043 0.155715 0  0.439062 0.0805201 0  0.481795 0.126919 0  0.471875 0.1 0  0.489227 0.142159 0  0.515625 0.1 0  0.520062 0.147117 0  0.501244 0.161791 0  0.505431 0.112984 0  0.505344 0.14029 0  0.526563 0.119081 0  0.5181750000000001 0.131908 0  0.539868 0.136937 0  0.460937 0.108383 0  0.474242 0.114415 0  0.460937 0.0810483 0  0.487841 0.167168 0  0.526563 0.0612217 0  0.526563 0.106406 0  0.537619 0.112743 0  0.58125 0.1 0  0.559375 0.1 0  0.482812 0.08105569999999999 0  0.471883 0.0587655 0  0.570312 0.129396 0  0.548437 0.07598340000000001 0  0.504687 0.08105569999999999 0  0.49375 0.0470127 0  0.570312 0.112663 0  0.592798 0.12103 0  0.553986 0.12103 0  0.570312 0.0805201 0  0.48125 0 0  0.114787 0.2 0  0.160769 0.284765 0  0.175816 0.288361 0  0.162602 0.116048 0  0.154687 0.07598340000000001 0  0.176562 0.0805201 0  0.0598995 0.147547 0  0.307812 0.109924 0  0.291279 0.117157 0  0.278491 0.112989 0  0.285937 0.07598340000000001 0  0.307812 0.0805201 0  0.296928 0.196743 0  0.318141 0.218507 0  0.330208 0.227509 0  0.301397 0.225668 0  0.302706 0.241401 0  0.292574 0.21424 0  0.282762 0.230935 0  0.284351 0.244775 0  0.269553 0.23261 0  0.278572 0.217242 0  0.226924 0.342606 0  0.446928 0.185396 0  0.515625 0.3 0  0.504687 0.288879 0  0.515256 0.276534 0  0.529479 0.285328 0  0.58125 0.3 0  0.541969 0.272936 0  0.559375 0.3 0  0.556796 0.282529 0  0.543473 0.287206 0  0.581429 0.267774 0  0.566728 0.271171 0  0.570869 0.255585 0  0.577404 0.283865 0  0.603125 0.3 0  0.597531 0.28035 0  0.570312 0.338778 0  0.592188 0.292492 0  0.603513 0.256094 0  0.614063 0.286265 0  0.610329 0.27064 0  0.632708 0.251285 0  0.657223 0.261594 0  0.618789 0.257807 0  0.614188 0.22987 0  0.630935 0.265614 
[...]
<PointData  Vectors="v"> 
	<DataArray  type="Float64"  Name="v"  NumberOfComponents="3" format="ascii">
0.0 0.0 0.0 0.0 0.0 0.0 0.0 0.0 0.0 0.0 0.0 0.0 0.7962235584807785 -0.19598368198697289 0.0 0.8404160745473367 0.20775676837131243 0.0 1.1693671686021598 -0.06433385146628046 0.0 1.1369482817432799 0.05129431837508812 0.0 0.0 0.0 0.0 0.0 0.0 0.0 0.0 0.0 0.0 0.0 0.0 0.0 0.0009194743347835138 0.0009013503195937689 0.0 0.002677966068159761 0.004501788527761258 0.0 0.0011669796329385898 0.0020323706502305707 0.0 0.0 0.0 0.0 0.0 0.0 0.0 0.0 0.0 0.0 0.0 0.0 0.0 0.0 0.0 0.0 0.0 0.0 0.0 0.0 0.0 0.0 0.0 0.0 0.0 0.0 0.0 0.0 0.0 0.0 0.0 0.0 0.0 0.0 0.0 0.0 0.0 0.0 0.0 0.0 0.0 0.0 0.0 0.0 0.0 0.0 0.0 0.0 0.0 0.0 0.0 0.0 0.0 0.0 0.0 -0.00015198797977300296 0.0002594501860736672 0.0 -0.0018772815809511324 0.0033874822506073073 0.0 0.0007965950965340324 -0.0006972213212437856 0.0 0.0 0.0 0.0 0.0 0.0 0.0 0.0 0.0 0.0 0.0 0.0 0.0 0.0 0.0 0.0 0.7613301995306215 -0.0012804917371498283 0.0 1.2762087263093729 0.08238005365248989 0.0 1.2655688201495057 -0.07785479442193971 0.0 0.0 0.0 0.0 1.3536669292133146 -0.13294516555381353 0.0 1.3581240645975294 0.15486653102148065 0.0 0.0 0.0 0.0 0.0 0.0 0.0 1.0 0.0 0.0 0.0 0.0 0.0 0.0 0.0 0.0 0.0 0.0 0.0 0.8425890706478903 -0.23188413977964206 0.0 1.151409260149519 -0.34440726449451536 0.0 0.8637934702099493 0.2293042858079735 0.0 1.166272906287547 0.35395771066923737 0.0 0.4282369556472068 -0.003984722319040214 0.0 0.16747012872129252 0.06296145801754008 0.0 0.1678788458706691 -0.06011613928545667 0.0 -0.028212445558640706 -0.038577152962298175 0.0 -0.0262002506982223 0.03705285941461634 0.0 0.334379404765476 -0.279861917935223 0.0 0.8578804696530636 -0.6734880266465372 0.0 0.6399877399027604 -0.6881666254891483 0.0 1.2060908878164704 -0.6133400848167914 0.0 0.41774472422144737 -0.06854178706333829 0.0 0.3304501020419207 0.2687313184022752 0.0 0.6428506519549265 0.6693135415686701 0.0 1.185247194445104 0.6153303219402511 0.0 0.40617269408898915 0.07192658918210885 0.0 1.313118381340749 0.2608628687822301 0.0 0.3279129129793336 0.2545001015477397 0.0 1.302697160209413 -0.24046875761044229 0.0 0.3199104892675124 -0.24412087264884016 0.0 -0.03403508935506265 -0.01694862954876994 0.0 1.1246939734081227 -0.398763363682154 0.0 1.0931495138577856 -0.7243508144512296 0.0 0.8521030052625913 0.7707479638391368 0.0 1.1316902691955275 0.3995471196829067 0.0 0.7598433218850916 0.185908661897625 0.0 0.10968788246080448 0.05209585502117126 0.0 0.7690699332696236 -0.1819915996468163 0.0 0.11206306515310642 -0.050764872930590024 0.0 -0.029976599442589662 0.019641623235415587 0.0 1.0276033854804014 0.7188975855669081 0.0 0.4423894388644281 0.5291858314079381 0.0 0.45739838318084725 0.17636259368097534 0.0 0.275681854064094 0.06987239004555201 0.0 0.4648672574831244 -0.17492132816083253 0.0 0.2807015398976769 -0.06528910555193523 0.0 -0.0760049387758815 0.0025921694718691744 0.0 0.9654931877695393 0.3173596020445056 0.0 1.260493242091772 0.31300269147024345 0.0 1.2451855876260718 0.288578219890457 0.0 1.2348819146703565 -0.30776646176972683 0.0 1.2478746814078139 -0.28115404023572904 0.0 1.2204366623431844 0.3307705606095504 0.0 1.226012691813461 -0.3228274731925674 0.0 0.44288734961118853 -0.5445856243344812 0.0 0.8020152369537791 -0.1396239929919105 0.0 0.6715052985671902 -0.41971728202740244 0.0 0.8774013279449894 0.5938281991681224 0.0 0.7993117197353555 0.14280938948625985 0.0 0.6765079840922433 0.42013554082926624 0.0 1.292761279698634 -0.007333073497979771 0.0 0.2957854648887864 0.14554722063246872 0.0 0.2958841827739614 -0.13630006633942948 0.0 -0.055183354544516984 -0.012679784340809071 0.0 1.2651638086225074 0.4716709710565985 0.0 0.7684360653675696 0.12070324257373728 0.0 1.2610731248932454 -0.47338464938618663 0.0 0.7894220821659541 -0.11541718516751363 0.0 1.2757631621375167 0.4178703424659988 0.0 1.2540254076929285 0.4009573635349145 0.0 1.2715002411872913 -0.4143773351004903 0.0 1.244695449322616 -0.3812311725694542 0.0 0.583526329603044 -0.16053498810774286 0.0 0.7964271230278204 -0.3318137210791173 0.0 1.0104853082256962 0.603768741970946 0.0 0.5917573142967433 0.1506015788293242 0.0 0.8125761431192746 0.3316975232018613 0.0 0.7462444290744411 0.08097794700325225 0.0 0.7827536549504157 -0.07333506037418136 0.0 0.05274548919136329 -0.02164755854008913 0.0 1.3632101881088996 0.20738779833039603 0.0 0.9298098945092583 -0.32225628484869584 0.0 1.3446696551848087 -0.19009543050878175 0.0 0.41149892590351195 0.09143776840632428 0.0 0.42805296773750656 -0.07913958190244624 0.0 -0.05501166377655377 -0.0076821239329382274 0.0 1.0573756827068668 0.35391597873256725 0.0 0.9431871407161732 0.3914450328339776 0.0 0.9219653301456524 0.11249395998930516 0.0 0.8244767528866332 -0.08671728397730968 0.0 1.3068240206487196 0.016559676107470507 0.0 1.0275019927965314 -0.34524610810369805 0.0 1.0744574691530895 -0.5703629788537333 0.0 0.9301150268785994 -0.38941432775780593 0.0 0.9974438200315031 -0.4386832844328978 0.0 0.9329108002255373 -0.5428460960020071 0.0 0.8655181545474147 -0.40650887260826984 0.0 1.2736725276787424 0.23278282513763507 0.0 1.2712298311228758 -0.2195787696624131 0.0 0.8526466110835611 -0.23562650441282065 0.0 0.8790375644035971 -0.3099590335030132 0.0 0.8528849911495997 -0.2990458523229631 0.0 0.8513970908190183 -0.2564126145093582 0.0 0.8542002409389983 -0.2527823531327795 0.0 0.8962595283830256 -0.31948029189279137 0.0 1.3291105201124873 0.31533118652252157 0.0 1.0847685599550685 -0.0024812725685815955 0.0 1.3145934905448802 0.3621392013751056 0.0 1.321447957929797 -0.29619640468355773 0.0 0.0 0.0 0.0 0.0 0.0 0.0 1.299458725916502 -0.3495965442041692 0.0 0.7142401783974287 -0.2673184592217414 0.0 0.8203865697978338 -0.21075690951452136 0.0 0.8711702088945312 -0.11073826215613161 0.0 0.8624361241774676 -0.16375343883297167 0.0 0.9375 0.0 0.0 0.7500000000000001 0.0 0.0 0.7224839333787488 0.2653055965533226 0.0 0.8240479587721177 0.20015245783753488 0.0 0.7499999999999999 0.0 0.0 0.8697232430349964 0.12783719911082536 0.0 0.9287152120403325 0.042856283191254244 0.0 0.84811593787701 0.04508403089578827 0.0 -0.035336553944433 -0.011135365226121303 0.0 0.09240187765687116 -0.01702212450377107 0.0 1.115078789814381 0.5547221541267228 0.0 1.0190540443986058 0.4731076119839152 0.0 0.8809848595351659 0.24547553574321623 0.0 1.200031758022754 0.13910653023193437 0.0 1.3288514472236574 0.0598433013444106 0.0 0.35512020954461904 0.038369210868013225 0.0 1.3560500333414818 0.10293202960651755 0.0 0.7147188341398902 0.05395676878847076 0.0 1.171143432283065 0.1003099037698357 0.0 0.516493140535283 0.015978626614933215 0.0 0.4982538449698166 0.030243176688855067 0.0 0.07156399249466254 0.013113133327324845 0.0 0.9569233099238645 0.034625221002515257 0.0 0.25987025893440235 0.022122813661989073 0.0 0.1653777785829657 0.008290212724711475 0.0 0.2701641703167367 0.014533259825808855 0.0 0.6679116944817602 -0.004805116262610588 0.0 0.5002313004731767 0.007057348214131793 0.0 1.3157224982421594 0.019289776060625596 0.0 0.5423271564307026 0.06235560456882395 0.0 1.2303422306692435 -0.1421388867563618 0.0 0.2041333674237124 -0.03748334648530468 0.0 1.205636593423054 0.17345405016657425 0.0 0.8828342058698626 0.17975382147962518 0.0 0.7011092746001567 -0.16796819126179793 0.0 1.115609606032822 -0.0942043525861516 0.0 1.0385661589526207 -0.22381624300702319 0.0 0.8637443623057005 -0.1826392066377939 0.0 0.8754202183967756 -0.02557613072108234 0.0 0.44122776645555145 -0.0484015782254485 0.0 0.29237741594416067 -0.0330094714134407 0.0 1.3290036122814703 -0.041898819112842656 0.0 0.20963182367333824 -0.013102408175206762 0.0 1.3555968522300845 -0.08638008283109021 0.0 0.1928545017741281 -0.018668818121991296 0.0 0.5367019351590683 -0.015691602870305958 0.0 -0.0013732775857582824 -0.010739210481315563 0.0 0.5734104671956938 -0.03160223184585752 0.0 0.878910962671657 0.297154478086382 0.0 0.879585216089934 0.41076432731663076 0.0 0.8851075387041757 0.27031295850384013 0.0 0.91222485030432 0.10986938760973561 0.0 0.8651910133173054 0.2232933849960956 0.0 0.9047469932792471 0.30370806211019935 0.0 0.8572506610226208 0.23351270555104323 0.0 0.8020371461819751 0.18337222875729145 0.0 0.8670643548823375 0.16154201167602938 0.0 0.0 0.0 0.0 0.8415277649709914 0.1766998892555941 0.0 0.8706652516075004 0.17103899058706 0.0 1.2130256646245128 0.049784457987675175 0.0 1.2375834892882445 0.06502030380282472 0.0 0.8907229899387217 0.013300327531671355 0.0 0.5954459803777193 -0.026334275919423177 0.0 1.2797305875680898 0.14708053029219964 0.0 0.7176065115665368 -0.173728842172625 0.0 1.1780736411842652 -0.16461243955411128 0.0 0.9990609691965072 -0.019732689858313168 0.0 1.3236731512760906 -0.007741142030912632 0.0 0.5863805593438169 -5.0526061845001604e-05 0.0 1.220662133170831 -0.012502489702860501 0.0 0.983816596239322 0.009256981528186931 0.0 -0.004077286421116529 -0.006899629331262304 0.0 -0.09633923983138107 0.0010929532787666075 0.0 0.9448803845947846 0.3411980995214288 0.0 0.8784318197144337 -0.018489755617332092 0.0 0.4293491557529501 -0.008360669953278261 0.0 0.0 0.0 0.0 1.3285695251312202 0.03748799647897845 0.0 1.212601123849104 0.024974387529453832 0.0 1.3170726733952793 0.11460053659473823 0.0 1.2520627929269728 -0.044523371605264 0.0 0.41479757711549337 -0.013613456720809353 0.0 1.2284610760063575 0.010478506301502329 0.0 1.2913059075830386 0.05647157201686 0.0 0.04152646267471383 -0.009436971808775056 0.0 -0.0829256818170032 -0.004882460063601043 0.0 -0.06773138296117756 -0.007215334933111673 0.0 -0.08168811168418737 0.003006350081515695 0.0 1.1856982147725832 0.21962562475128425 0.0 0.7774527162529128 0.19844266390257298 0.0 0.7779225997818122 0.1542297213431325 0.0 0.7857420093082181 0.1069171388104482 0.0 0.6205807113037914 0.11097623222981874 0.0 0.3550585365073605 0.0013329838060748603 0.0 0.09484116763311386 0.0034146232959262847 0.0 0.36614727294047766 -0.021480142786850134 0.0 1.0718264083661933 0.07670954389172939 0.0 0.0 0.0 0.0 0.5206814688144414 0.01152706399756573 0.0 0.932205364033434 0.029155157684752058 0.0 -0.10910224355907859 0.0002720179557650728 0.0 1.0969615774098154 0.26690794038564986 0.0 0.9003391569045235 0.11241069220896316 0.0 1.2802081053136163 -0.04996360965347565 0.0 0.18754669694695453 -0.003415522443490826 0.0 0.3595466029169733 0.017602456937340527 0.0 0.14381964221469642 0.0001643581586942115 0.0 1.3029940663519037 0.03900313024315916 0.0 -0.10614388653726918 -0.001644334793384298 0.0 -0.07741303729995265 -0.006440196373448695 0.0 -0.09745751318286028 -0.004798704835045197 0.0 -0.0428323635978652 0.006664984200839355 0.0 -0.09489065362936537 5.655248603682982e-05 0.0 -0.11540849954232758 -0.0005577446141761872 0.0 -0.06609112435129062 -0.002942039573931654 0.0 -0.040558809855003757 0.002746369757428578 0.0 -0.11913053330428017 -0.0028955179707392843 0.0 0.07635888642512857 -0.002954909961994012 0.0 -0.03797722586529014 0.005200622795211593 0.0 -0.12231974748095616 -0.002944467362714595 0.0 -0.12110061671233578 -0.0020735859555393796 0.0 -0.023087297482943647 -0.004000503989472105 0.0 0.0 0.0 0.0 0.9464065025900749 0.25538330388461783 0.0 0.9513533316058412 0.0401188315004865 0.0 0.2264590085788465 -0.004928300604182542 0.0 0.30966801338673305 -0.004228879021891772 0.0 0.5449337545089027 0.020899190515371886 0.0 0.9125380095064489 0.04273024633867654 0.0 1.192171256578685 0.034413267210704326 0.0 1.3536503803669082 0.014577024750833627 0.0 0.08886698889600683 0.00178237432413663 0.0 -0.03514779483008727 -0.0011134608120598453 0.0 0.022744034498718823 -0.014228546939402235 0.0 0.13631401634872747 -0.010014215689646716 0.0 0.12601100285041572 -0.01571667711165434 0.0 0.3163181075983454 -0.024631041001161223 0.0 0.5753048876523433 -0.052454799436163935 0.0 0.859954855344629 -0.053247848578919316 0.0 0.3671751766683836 -0.03342834182616602 0.0 0.5561764549272966 -0.036831737916382945 0.0 0.6510807622508189 -0.04894514298424137 0.0 0.7709604157610448 -0.04169226339926893 0.0 0.2589790984302721 -0.03038681655737172 0.0 1.2724529523311032 -0.06516048137027129 0.0 1.0587378612021658 -0.05243679105300817 0.0 1.2865007557813524 -0.02940042399711949 0.0 1.0492987210709257 -0.04014669558222181 0.0 -0.04276861918110199 -0.01175230015214084 0.0 1.0270510963806891 -0.06786307687341259 0.0 1.0604127692578802 -0.030348031281993166 0.0 1.2279625869641626 -0.10083564452937578 0.0 -0.10806775759736824 -0.005280678880481343 0.0 0.45994442348656756 -0.04750934091515135 0.0 1.2493049080908343 -0.10369127892603963 0.0 0.1310566553954822 -0.024327595570011868 0.0 -0.12118614515573523 -0.003406660580199695 0.0 1.2603819126802664 -0.087570002833753 0.0 0.06208408450094621 -0.023628511188606694 0.0 -0.11077739762639803 -0.005417023047228801 0.0 -0.02454426346214752 0.007390460521295806 0.0 0.044973967917372175 -0.020452993049733914 0.0 -0.06763612179260281 -0.010961710624513997 0.0 0.4169910190969493 -0.05080214254370737 0.0 -0.047933799791956444 -0.013371235466522273 0.0 0.11646668681278326 0.03042750324147029 0.0 -0.08084592139828861 0.002716959009152413 0.0 -0.07259320544041947 -0.008541533572433662 0.0 -0.09837552212760999 -0.0022213367056319513 0.0 0.0416894569854445 0.014564707506963611 0.0 1.214263702270324 0.10431928564598127 0.0 0.32938473485858805 0.03551848464276845 0.0 0.30175568538651454 -0.04603011559955559 0.0 0.2571455896675658 -0.010945440152217953 0.0 0.7091661873843055 -0.020859268433670735 0.0 0.30693957426916957 0.005689441516180566 0.0 1.1767120225764824 0.052597443044192574 0.0 0.8891482048387926 0.06031180993855117 0.0 0.9277851328024604 -0.08346033649905045 0.0 -0.04725641772646351 -0.004584454198227962 0.0 -0.05834515912134496 -0.005834982749650819 0.0 -0.11832513006786641 -0.003758102533937527 0.0 -0.04455610405790408 0.002145641202199731 0.0 -0.07908920906775246 -0.006792569213190839 0.0 0.3249299618553216 -0.04072597433757211 0.0 1.2566272774070353 -0.09318683362483614 0.0 0.6250957144206218 -0.0630811755235753 0.0 0.89154425689114 -0.08619194208302954 0.0 -0.026514288388554557 0.010459908062829447 0.0 0.05915369199900656 -0.02471941188445543 0.0 -0.008625840086096386 -0.014802242917804439 0.0 0.20508462458303683 -0.03890102131691837 0.0 -0.017393957575502782 -0.015780024649614456 0.0 1.254804014363772 0.10756768749723274 0.0 -0.06596560265712828 -0.0017950857653011296 0.0 -0.01239775995365453 0.012725179881416141 0.0 -0.050369569779365034 0.000725539612012115 0.0 0.05251555068649499 -0.018685471140085154 0.0 0.33802324003551837 0.023799926444481274 0.0 0.6863225346638238 -0.071145579070667 0.0 0.5048756549884654 -0.06093751745626862 0.0 0.7864068951173352 -0.06950512498257742 0.0 0.262638280240913 -0.04039545274515318 0.0 0.8155005122034777 -0.0867459635661902 0.0 1.1649680326665433 -0.09122028903157207 0.0 1.0665176605093196 -0.08427994627393949 0.0 1.0402510888195942 -0.07594633091670107 0.0 0.5886973843300151 -0.06970091626012508 0.0 0.49943000901016693 -0.0640294555669395 0.0 0.3859325539025532 -0.055044004590429706 0.0 0.36184148762135215 -0.05299113357353133 0.0 0.1411145026324654 -0.032307636082629675 0.0 0.7820833972055166 -0.08609510037798973 0.0 0.2603753630571192 0.014195901813706557 0.0 0.6071881952284345 0.03739299566571031 0.0 0.06787422924687875 0.0049698047311530205 0.0 0.17267813098792653 0.01633306787252829 0.0 -0.06950220218096029 -0.0011397215970449226 0.0 1.3328010946759359 -0.02439557181818745 0.0 1.218043478927491 0.04097604930043145 0.0 1.3550648099885725 -0.012223010876939805 0.0 1.326129681568307 -0.06338966032844191 0.0 0.16555441702493293 -0.03373113960960645 0.0 0.35216450297841706 -0.0501740924270411 0.0 0.5593953618203297 0.045691928128523296 0.0 0.08870507470303948 0.013458206382588248 0.0 1.3082181651611988 0.004049061349386762 0.0 1.348046149461292 -0.03320395546340617 0.0 0.5223971863278474 0.06946667606358134 0.0 1.3262926009941574 -0.0766939995372625 0.0 0.5891040536298756 0.04245197573150809 0.0 1.2827189340899372 0.07142115370434046 0.0 0.3340018245599629 0.03199852668336443 0.0 0.70488829331227 0.06252325813138261 0.0 1.3347565463179518 0.024024280892540106 0.0 1.2310619796712239 -0.024345767661688347 0.0 1.3167550441059144 -0.0863728394993954 0.0 0.8252485592032023 0.06049411875746296 0.0 1.0481993712544435 0.07810742330088924 0.0 1.107145085916886 0.07162981453675013 0.0 1.2680964954653873 0.0987083989145727 0.0 1.1299638343115366 0.09705042652000614 0.0 0.9755545108473933 0.08033206913742712 0.0 0.6702661841499454 0.06598320098121278 0.0 1.2725676707749303 -0.08897719600474788 0.0 0.0 0.0 0.0 1.3081965533916193 0.05751548993739279 0.0 0.9189024373108531 0.08910742842861784 0.0 0.3277098725219245 0.03994007398380645 0.0 1.3163119290212273 0.07130888645632316 0.0 0.9008709316132237 0.08450883951555098 0.0 1.2716329902830195 0.09102747136212076 0.0 0.6004687488231799 0.06491866284565008 0.0 1.263355115043422 0.10445671904134038 0.0 0.5529283510289111 0.0677549878623651 0.0 0.25913077738164436 0.038428624827861975 0.0 1.148413374463488 0.10185300508001803 0.0 0.6642922936889281 0.07397379558884698 0.0 1.074867610963401 0.10433860053445203 0.0 0.8475587192356038 0.09073012719266543 0.0 0.7796611012580817 0.0898601632394073 0.0 1.1963599282542305 0.08810094558449634 0.0 1.1171396028301126 0.09128139296343504 0.0 1.30686827713638 0.0817209518506343 0.0 0.15845124524069512 0.026470695415439185 0.0 1.1523958591611416 0.07995282535937212 0.0 1.2182137217280011 0.10765921000917313 0.0 1.159473445879374 0.10901013064041958 0.0 1.2338930327037065 0.10949963264546261 0.0 1.2447603127157267 0.11028388059608818 0.0 1.2920113041661405 0.08720839373988301 0.0 1.1837231984038912 0.06857370414625256 0.0 0.9485194977703476 0.10425312858178089 0.0 1.2293757666897993 0.09392969984802761 0.0 1.2799032755173267 0.09123689146072475 0.0 1.0454018144857518 0.06562159596751162 0.0 1.1640921713407082 0.11214701187611785 0.0 1.0810945434800063 0.11135025839003482 0.0 1.0625083277253216 0.10827051958345334 0.0 1.2321503170662238 0.09852858644981592 0.0 0.0 0.0 0.0 0.6445088387059177 -0.005591005147803322 0.0 1.0778684619952588 0.4341644198080654 0.0 1.166937940293764 0.42213600663404144 0.0 1.0822345537583475 -0.42683322569360094 0.0 0.8656006517510619 -0.2270536444203823 0.0 0.9789010329760313 -0.25556842487627623 0.0 0.8923663262647321 -0.0849741494149437 0.0 1.2230348646481692 -0.052246337903034804 0.0 1.0818081096474015 -0.06401414361084318 0.0 1.198711983917005 -0.10451397277922599 0.0 1.2652969717948213 -0.08459112398269941 0.0 1.3153965103555116 -0.05367338986998965 0.0 -0.08404375526689199 -0.002283506942929638 0.0 -0.050036431572179206 0.007456544689578554 0.0 0.0018758076263291348 0.009707562734807117 0.0 0.001411727929002986 0.01181847747393596 0.0 0.1493997423285296 0.026615450478846687 0.0 -0.057527718160628405 0.008244771522547274 0.0 0.06258747707385853 0.02197263023889486 0.0 0.22014749958767924 0.03740117788277463 0.0 0.08636001132342709 0.038701934638852034 0.0 -0.03644081000141635 0.015345019848790583 0.0 1.0347265571086957 0.16069532725733016 0.0 -0.06876927837662328 0.0021607548234873013 0.0 1.2531079372279221 -0.09949690976693928 0.0 1.1403452723209153 -0.09774769487348368 0.0 0.9486866877175252 -0.09196285315942844 0.0 1.101844862766257 -0.10071189477372432 0.0 1.2389973588560945 -0.10358975664724446 0.0 0.910285632013382 -0.0936376303953551 0.0 1.2458740816382081 -0.10413153101476083 0.0 1.0753801710812403 -0.10220133901093024 0.0 1.1309000267931566 -0.10275471525867995 0.0 0.8605208898754857 -0.09085850115769548 0.0 0.9042594504775207 -0.09401127349699792 0.0 0.6226593193132791 -0.07437982929615185 0.0 1.1022853483104011 -0.10395936689249376 0.0 1.233735216287235 -0.10330015025555549 0.0 1.0673055139061687 -0.10120702377340224 0.0 1.168735429964752 -0.08428139912264379 0.0 1.192445704550094 -0.10504666209855024 0.0 0.679235695260294 -0.07640767916370803 0.0 1.1409252128809826 -0.10205164346880262 0.0 0.9374138144906969 -0.0938849722981578 0.0 0.63