<?xml version="1.0"?>
<VTKFile type="UnstructuredGrid"  version="0.1"  >
<UnstructuredGrid>
<Piece  NumberOfPoints="1289" NumberOfCells="2413">
<Points>
<DataArray  type="Float64"  NumberOfComponents="3"  format="ascii">0 0 0  0 0.41 0  2.2 0.41 0  2.2 0 0  0.1 0.1 0  0.1 0.3 0  0.8 0.3 0  0.8 0.1 0  0.25 0.2 0  0.248976 0.210065 0  0.245948 0.219718 0  0.241038 0.228563 0  0.234448 0.23624 0  0.226448 0.242432 0  0.217365 0.246888 0  0.207571 0.249423 0  0.197468 0.249936 0  0.187467 0.248404 0  0.17798 0.24489 0  0.169395 0.239539 0  0.162062 0.232569 0  0.156283 0.224265 0  0.152293 0.214968 0  0.150257 0.205058 0  0.150257 0.194942 0  0.152293 0.185032 0  0.156283 0.175735 0  0.162062 0.167431 0  0.169395 0.160461 0  0.17798 0.15511 0  0.187467 0.151596 0  0.197468 0.150064 0  0.207571 0.150577 0  0.217365 0.153112 0  0.226448 0.157568 0  0.234448 0.16376 0  0.241038 0.171437 0  0.245948 0.180282 0  0.248976 0.189935 0  1.1 0 0  1.1 0.41 0  0.1 0.2 0  0.45 0.1 0  0.45 0.3 0  0.55 0 0  0.275 0.1 0  0.275 0.3 0  0.275 0 0  0.55 0.41 0  0 0.205 0  0.825 0 0  0.825 0.41 0  0.275 0.41 0  0.1 0.15 0  0.1875 0.1 0  0.1 0.25 0  0.1875 0.3 0  0.132322 0.2 0  0.241426 0.253518 0  0.241426 0.146482 0  0.264574 0.17974 0  0.264574 0.22026 0  0.138434 0.187348 0  0.153372 0.150948 0  0.148413 0.164094 0  0.176495 0.136535 0  0.22768 0.143571 0  0.138434 0.212652 0  0.148413 0.235906 0  0.176495 0.263465 0  0.22768 0.256429 0  0.23125 0.3 0  0.24769 0.24094 0  0.23125 0.1 0  0.24769 0.15906 0  0.26253 0.193641 0  0.190482 0.137872 0  0.166753 0.146661 0  0.157737 0.244461 0  0.190482 0.262128 0  0.203107 0.261264 0  0.253635 0.22977 0  0.203107 0.138736 0  0.253635 0.17023 0  0.261028 0.206206 0  0.167707 0.251809 0  0.143629 0.224191 0  0.215302 0.2591 0  0.270465 0.245894 0  0.215302 0.1409 0  0.270465 0.154106 0  0.284052 0.202587 0  0.14375 0.3 0  0.209375 0.3 0  0.225966 0.278501 0  0.209375 0.1 0  0.225966 0.121499 0  0.211613 0.273759 0  0.211613 0.126241 0  0.143629 0.175809 0  0.1 0.175 0  0.133484 0.164832 0  0.144491 0.249539 0  0.1 0.225 0  0.133484 0.235168 0  0.3625 0.3 0  0.25691 0.253381 0  0.25691 0.146619 0  0.277205 0.188698 0  0.184724 0.275712 0  0.237372 0.268285 0  0.184724 0.124288 0  0.237372 0.131715 0  0.197578 0.273149 0  0.193656 0.286994 0  0.197578 0.126851 0  0.193656 0.113006 0  0.122953 0.187671 0  0.118362 0.153758 0  0.155372 0.258107 0  0.122953 0.212329 0  0.118362 0.246242 0  0.276394 0.27264 0  0.276394 0.12736 0  0.280965 0.170013 0  0.253125 0.3 0  0.14375 0.1 0  0.253125 0.1 0  0.269489 0.26014 0  0.269489 0.13986 0  0.303639 0.184297 0  0.165625 0.3 0  0.134742 0.273113 0  0.257831 0.274737 0  0.255279 0.128499 0  0.3625 0.1 0  0.165625 0.1 0  0.162031 0.132368 0  0.134955 0.126405 0  0.149334 0.125568 0  0.142936 0.139597 0  0.12695 0.140259 0  0.242514 0.285501 0  0.242514 0.114499 0  0.1 0.125 0  0.117483 0.12555 0  0.11154 0.139776 0  0.121875 0.1 0  0.109143 0.1125 0  0.126805 0.114 0  0.220313 0.29129 0  0.351562 0.287369 0  0.207222 0.2866 0  0.220312 0.10871 0  0.1375 0 0  0.20625 0 0  0.207222 0.1134 0  0.11722 0.17118 0  0.1 0.1625 0  0.0778409 0.16875 0  0.0862762 0.15625 0  0 0.15375 0  0 0.1025 0  0.11722 0.22882 0  0.1 0.2375 0  0 0.3075 0  0.0862762 0.23125 0  0.0598995 0.222547 0  0.0860223 0.2125 0  0.289584 0.181469 0  0.300267 0.16446 0  0.163832 0.269071 0  0.149597 0.273325 0  0.1 0.275 0  0.268498 0.285953 0  0.31875 0.3 0  0.294154 0.254672 0  0.296875 0.3 0  0.293558 0.271845 0  0.285095 0.286799 0  0.324298 0.264316 0  0.307866 0.263745 0  0.317093 0.234901 0  0.315485 0.281219 0  0.316547 0.250625 0  0.344693 0.243731 0  0.331592 0.251147 0  0.35129 0.270663 0  0.338689 0.263683 0  0.340625 0.3 0  0.249849 0.264383 0  0.265097 0.11422 0  0.284688 0.156136 0  0.242188 0.324017 0  0.0856613 0.2625 0  0.132812 0.0612217 0  0.264062 0.0612217 0  0.198437 0.07598340000000001 0  0.0860223 0.1375 0  0.0794526 0.191089 0  0.285228 0.140397 0  0.298655 0.148737 0  0.31875 0.1 0  0.327335 0.15374 0  0.296875 0.1 0  0.312289 0.155283 0  0.313348 0.135607 0  0.321802 0.173916 0  0.298433 0.134116 0  0.112124 0.2625 0  0.127526 0.259083 0  0.121875 0.3 0  0.0682687 0.241503 0  0.1 0.2875 0  0.117762 0.28125 0  0.107813 0.3 0  0.103906 0.313849 0  0.0778409 0.28125 0  0.1375 0.41 0  0.0862762 0.29375 0  0.08886860000000001 0.24375 0  0.307812 0.338778 0  0.307812 0.292227 0  0.33216 0.279164 0  0.387888 0.266414 0  0.264063 0.31948 0  0.110937 0.07598340000000001 0  0.242188 0.07598340000000001 0  0.319914 0.11839 0  0.340625 0.1 0  0.334448 0.133793 0  0.329687 0.108539 0  0.346259 0.118491 0  0.360334 0.173636 0  0.327539 0.205033 0  0.132812 0.288712 0  0.362436 0.278836 0  0.368105 0.259418 0  0.4125 0.41 0  0.329687 0.324017 0  0.329687 0.292306 0  0.285938 0.318952 0  0.417187 0.338778 0  0.324481 0.14148 0  0.351562 0.106771 0  0.40625 0.1 0  0.341028 0.168342 0  0.319221 0.190479 0  0.335292 0.184501 0  0.305563 0.20794 0  0.220313 0.31948 0  0.132812 0.332772 0  0.0865876 0.311259 0  0.0598995 0.302453 0  0.0906541 0.343255 0  0.353543 0.255837 0  0.36574 0.237633 0  0.405007 0.254279 0  0.275795 0.352123 0  0.4125 0 0  0.35493 0.137394 0  0.366563 0.120618 0  0.35917 0.205246 0  0.198438 0.318952 0  0.0626109 0.263892 0  0.40625 0.3 0  0.354809 0.155936 0  0.386512 0.146872 0  0.373101 0.159939 0  0.384375 0.1 0  0.343394 0.19929 0  0.350682 0.185683 0  0.368101 0.189748 0  0.344016 0.221511 0  0.391108 0.213329 0  0.376279 0.204783 0  0.398843 0.182768 0  0.375804 0.222746 0  0.390665 0.196958 0  0.394004 0.23518 0  0.359883 0.222828 0  0.419908 0.204359 0  0.404243 0.204783 0  0.412615 0.224526 0  0.20625 0.41 0  0.165625 0.325257 0  0.0347982 0.244954 0  0.379558 0.247154 0  0.34165 0.147603 0  0.372264 0.136992 0  0.388988 0.121989 0  0.373437 0.108554 0  0.351562 0.31948 0  0.391367 0.16527 0  0.399572 0.223324 0  0.452011 0.227371 0  0.40877 0.239392 0  0.431491 0.237337 0  0.421224 0.250459 0  0.449619 0.262098 0  0.418865 0.276779 0  0.437063 0.252274 0  0.415673 0.263227 0  0.430988 0.266772 0  0.402767 0.273419 0  0.452967 0.244883 0  0.428125 0.3 0  0.408502 0.286186 0  0.384375 0.3 0  0.392267 0.285807 0  0.465927 0.219339 0  0.43489 0.283846 0  0.376424 0.286289 0  0.625 0.3 0  0.473533 0.205186 0  0.461713 0.255517 0  0.5375 0.3 0  0.465725 0.235405 0  0.44631 0.201425 0  0.471875 0.3 0  0.494307 0.227729 0  0.459448 0.206736 0  0.462294 0.180792 0  0.478933 0.227536 0  0.486793 0.21381 0  0.486322 0.251373 0  0.50065 0.215318 0  0.54005 0.175389 0  0.474633 0.189893 0  0.512916 0.208697 0  0.49531 0.199967 0  0.475889 0.175275 0  0.625 0.1 0  0.459311 0.153933 0  0.513645 0.242704 0  0.392892 0.248539 0  0.374815 0.271913 0  0.365974 0.14871 0  0.395312 0.109184 0  0.417061 0.123981 0  0.483196 0.277003 0  0.381967 0.179632 0  0.429898 0.219374 0  0.433473 0.206165 0  0.43149 0.181038 0  0.444208 0.215487 0  0.472985 0.247309 0  0.49375 0.3 0  0.475579 0.262714 0  0.49916 0.274293 0  0.501175 0.184809 0  0.514164 0.225681 0  0.543648 0.214977 0  0.5341630000000001 0.23481 0  0.527396 0.216171 0  0.5375 0.1 0  0.534548 0.202315 0  0.561545 0.192513 0  0.5494289999999999 0.201221 0  0.570923 0.218346 0  0.412582 0.149833 0  0.489327 0.264745 0  0.502439 0.254775 0  0.462391 0.271166 0  0.496775 0.241732 0  0.5294410000000001 0.268606 0  0.482812 0.291099 0  0.46879 0.285038 0  0.452663 0.284065 0  0.51789 0.257882 0  0.53408 0.252026 0  0.560142 0.243543 0  0.545708 0.243474 0  0.547532 0.229019 0  0.55282 0.265323 0  0.398971 0.153424 0  0.400349 0.135684 0  0.410135 0.168145 0  0.428823 0.161323 0  0.415266 0.183779 0  0.329687 0.0810483 0  0.395312 0.0612217 0  0.373437 0.318952 0  0.439062 0.324017 0  0.561816 0.229354 0  0.585029 0.239287 0  0.431827 0.139854 0  0.446796 0.168929 0  0.351562 0.07598340000000001 0  0.395313 0.318944 0  0.54337 0.150762 0  0.460937 0.31948 0  0.418412 0.137529 0  0.428125 0.1 0  0.442783 0.152332 0  0.450742 0.134294 0  0.373437 0.0805201 0  0.384383 0.342558 0  0.482812 0.318952 0  0.429239 0.127457 0  0.444274 0.117405 0  0.426548 0.113815 0  0.49375 0.1 0  0.488954 0.113984 0  0.457973 0.121842 0  0.471621 0.137346 0  0.515625 0.325257 0  0.48125 0.41 0  0.417187 0.07598340000000001 0  0.496363 0.126778 0  0.479043 0.155715 0  0.439062 0.0805201 0  0.481795 0.126919 0  0.471875 0.1 0  0.489227 0.142159 0  0.515625 0.1 0  0.520062 0.147117 0  0.501244 0.161791 0  0.505431 0.112984 0  0.505344 0.14029 0  0.526563 0.119081 0  0.5181750000000001 0.131908 0  0.539868 0.136937 0  0.460937 0.108383 0  0.474242 0.114415 0  0.460937 0.0810483 0  0.487841 0.167168 0  0.526563 0.0612217 0  0.526563 0.106406 0  0.537619 0.112743 0  0.58125 0.1 0  0.559375 0.1 0  0.482812 0.08105569999999999 0  0.471883 0.0587655 0  0.570312 0.129396 0  0.548437 0.07598340000000001 0  0.504687 0.08105569999999999 0  0.49375 0.0470127 0  0.570312 0.112663 0  0.592798 0.12103 0  0.553986 0.12103 0  0.570312 0.0805201 0  0.48125 0 0  0.114787 0.2 0  0.160769 0.284765 0  0.175816 0.288361 0  0.162602 0.116048 0  0.154687 0.07598340000000001 0  0.176562 0.0805201 0  0.0598995 0.147547 0  0.307812 0.109924 0  0.291279 0.117157 0  0.278491 0.112989 0  0.285937 0.07598340000000001 0  0.307812 0.0805201 0  0.296928 0.196743 0  0.318141 0.218507 0  0.330208 0.227509 0  0.301397 0.225668 0  0.302706 0.241401 0  0.292574 0.21424 0  0.282762 0.230935 0  0.284351 0.244775 0  0.269553 0.23261 0  0.278572 0.217242 0  0.226924 0.342606 0  0.446928 0.185396 0  0.515625 0.3 0  0.504687 0.288879 0  0.515256 0.276534 0  0.529479 0.285328 0  0.58125 0.3 0  0.541969 0.272936 0  0.559375 0.3 0  0.556796 0.282529 0  0.543473 0.287206 0  0.581429 0.267774 0  0.566728 0.271171 0  0.570869 0.255585 0  0.577404 0.283865 0  0.603125 0.3 0  0.597531 0.28035 0  0.570312 0.338778 0  0.592188 0.292492 0  0.603513 0.256094 0  0.614063 0.286265 0  0.610329 0.27064 0  0.632708 0.251285 0  0.657223 0.261594 0  0.618789 0.257807 0  0.614188 0.22987 0  0.630935 0.265614 
[...]
<PointData  Vectors="v"> 
	<DataArray  type="Float64"  Name="v"  NumberOfComponents="3" format="ascii">
0.0 0.0 0.0 0.0 0.0 0.0 0.0 0.0 0.0 0.0 0.0 0.0 0.7962012308668845 -0.19592889831635185 0.0 0.8404392029411585 0.2078165684809386 0.0 1.1744936912101718 -0.06361751361525245 0.0 1.131258869663478 0.05117006342996997 0.0 0.0 0.0 0.0 0.0 0.0 0.0 0.0 0.0 0.0 0.0 0.0 0.0 0.0008055743947605502 0.0007023193394841312 0.0 -0.002167569504011934 -0.0038913288474830303 0.0 -0.0002377689790929894 -0.0003992860522198524 0.0 0.0 0.0 0.0 0.0 0.0 0.0 0.0 0.0 0.0 0.0 0.0 0.0 0.0 0.0 0.0 0.0 0.0 0.0 0.0 0.0 0.0 0.0 0.0 0.0 0.0 0.0 0.0 0.0 0.0 0.0 0.0 0.0 0.0 0.0 0.0 0.0 0.0 0.0 0.0 0.0 0.0 0.0 0.0 0.0 0.0 0.0 0.0 0.0 0.0 0.0 0.0 0.0 0.0 0.0 0.0013535453905956822 -0.0023468911911176025 0.0 0.0033170749553947734 -0.005610414770688162 0.0 0.0009140782618095131 -0.0009067516098381521 0.0 0.0 0.0 0.0 0.0 0.0 0.0 0.0 0.0 0.0 0.0 0.0 0.0 0.0 0.0 0.0 0.7613307134407671 -0.0011821574326278588 0.0 1.2754026883423364 0.08243770339577877 0.0 1.2664608518664278 -0.07783262587281503 0.0 0.0 0.0 0.0 1.3536097223054093 -0.13320353060611184 0.0 1.3581827889192315 0.15474368423600338 0.0 0.0 0.0 0.0 0.0 0.0 0.0 1.0 0.0 0.0 0.0 0.0 0.0 0.0 0.0 0.0 0.0 0.0 0.0 0.8425677627179725 -0.23180048535658587 0.0 1.151277425182416 -0.3443038486492371 0.0 0.8638115581547156 0.22938898925133755 0.0 1.1663934912676264 0.35408777606873537 0.0 0.42823865685481155 -0.0038469917709419176 0.0 0.1637684408283637 0.06177966839897227 0.0 0.17166342339435764 -0.06158484687781748 0.0 -0.02783656944777999 -0.03842387868239776 0.0 -0.026178121017489172 0.03680144678370251 0.0 0.3343571721699987 -0.27970972588875975 0.0 0.8578233745683361 -0.6733636738700931 0.0 0.6399335264968923 -0.6880371209018364 0.0 1.2060510447782293 -0.6132244123299117 0.0 0.4139241419166146 -0.07033930037553551 0.0 0.33047286648130275 0.2688834949573897 0.0 0.6428997786899956 0.6694455984482252 0.0 1.185266106616677 0.6154477802182193 0.0 0.40945413507438255 0.07026558941731924 0.0 1.3133217992415245 0.2606950517295356 0.0 0.3265778386799349 0.255107752734535 0.0 1.3024890389948327 -0.24071761586096976 0.0 0.3179800464866545 -0.24100305299001692 0.0 -0.03381834632738209 -0.016910610850315252 0.0 1.124839366888405 -0.39869339215727034 0.0 1.09310729985019 -0.724257569332412 0.0 0.8521517901606418 0.7708533571996597 0.0 1.131509814192038 0.39961165979661867 0.0 0.7594811347421745 0.1861413635099449 0.0 0.10928136046398874 0.05202867427117301 0.0 0.7693738781668188 -0.18174347940336388 0.0 0.11191321172411423 -0.05023835564538398 0.0 -0.029814625170916497 0.019459025501210207 0.0 1.0276194508166872 0.7189705539552277 0.0 0.44243839452260825 0.529331577010434 0.0 0.4588345586917915 0.17842221253879284 0.0 0.2736389109344753 0.0695282824203735 0.0 0.4632325102833346 -0.17269027593633363 0.0 0.2799597250912898 -0.06510738398290701 0.0 -0.07565262416579062 0.002621373473887817 0.0 0.9655465747348746 0.3174537947151562 0.0 1.2606976388953 0.31313439703345847 0.0 1.2455755606793315 0.2887612742205603 0.0 1.234665424326728 -0.3076714411224648 0.0 1.247350680759307 -0.28103677191091264 0.0 1.2205190685297198 0.33110207568150146 0.0 1.2258381091888406 -0.322502838138633 0.0 0.442835988459171 -0.5444391514419522 0.0 0.802000841623612 -0.1395268271679509 0.0 0.6714661667442123 -0.4195755815859811 0.0 0.8774468138581807 0.5939469530517003 0.0 0.7993256303736005 0.14290583273562618 0.0 0.6765440438895203 0.4202759689452519 0.0 1.2929221366825583 -0.007233153770243113 0.0 0.29432517340332853 0.14550907777403935 0.0 0.2960937259043838 -0.1353604447466478 0.0 -0.05482882636345176 -0.012649057961637315 0.0 1.2652008619620934 0.4718600330139576 0.0 0.7689547453924249 0.12034743626285463 0.0 1.2610098711955557 -0.4732140886531396 0.0 0.7887098659927538 -0.11592401761095732 0.0 1.2758040262174875 0.418132941691967 0.0 1.2541551431761175 0.40114164328673935 0.0 1.2714123591033217 -0.4141229428744799 0.0 1.244541120497589 -0.3810689339214738 0.0 0.5835099000897704 -0.16040016623289743 0.0 0.7963962108286978 -0.331704814491711 0.0 1.01052994534251 0.6038859724350849 0.0 0.5917716510881769 0.15073649558787364 0.0 0.8126038255997929 0.33180720355178 0.0 0.7462142896322473 0.08090557039983477 0.0 0.7825693617331395 -0.07324441061252099 0.0 0.05281083866858388 -0.021717006549032532 0.0 1.3635000765619356 0.20729991991035515 0.0 0.9297543486405064 -0.32216693886575754 0.0 1.3444262124218957 -0.19023571185784283 0.0 0.41024061770668563 0.09133898688977277 0.0 0.4280605036033536 -0.07879136795058991 0.0 -0.05478555403556705 -0.007696659635466316 0.0 1.0574494722385595 0.3540298648367145 0.0 0.943225719117203 0.3915487105880548 0.0 0.9225694059037443 0.11220780463318038 0.0 0.8237885146720502 -0.0870817091757924 0.0 1.3067489795641556 0.016673722278917082 0.0 1.0274171957123148 -0.34514789807829316 0.0 1.0744032425775007 -0.5702470690026633 0.0 0.9300694537230704 -0.3893136758605129 0.0 0.9973892407918437 -0.43857443187912803 0.0 0.9328589561696936 -0.5427324969986168 0.0 0.865479584838227 -0.40640323192292666 0.0 1.273452535205472 0.2327099029599719 0.0 1.2714213109570116 -0.21977482181923938 0.0 0.8526229756946614 -0.23555685203874657 0.0 0.8790026463503328 -0.30987335738334054 0.0 0.8528555718834145 -0.2989570509300567 0.0 0.8513573506562888 -0.2563411449334509 0.0 0.8541699421905237 -0.25271195785482703 0.0 0.8962181324410435 -0.3193945235438347 0.0 1.3294410510027768 0.31549623697876866 0.0 1.0849929899916755 -0.0024536322844298346 0.0 1.3147926137632566 0.36232954786424776 0.0 1.3210763274848083 -0.29609695924668183 0.0 0.0 0.0 0.0 0.0 0.0 0.0 1.299222440123136 -0.34944467953272423 0.0 0.7142175863028976 -0.2672007658437789 0.0 0.8203675871502984 -0.21066783257323424 0.0 0.8711610721091037 -0.11067417690745994 0.0 0.8624234830770944 -0.16368467025746317 0.0 0.9375 0.0 0.0 0.7500000000000001 0.0 0.0 0.7225039284659837 0.2654227136578078 0.0 0.824064684303921 0.2002427748827367 0.0 0.7499999999999999 0.0 0.0 0.8697338961644148 0.12791282156638553 0.0 0.9287193707922085 0.04289723096700332 0.0 0.8481177241030838 0.04516191905142876 0.0 -0.0350809110676057 -0.011146356532911924 0.0 0.09225639872681483 -0.017145877692294257 0.0 1.115122787723465 0.5548500506290494 0.0 1.0191014422549565 0.4732212176501594 0.0 0.8810066161914061 0.2455483309533381 0.0 1.2002899702291676 0.1389821624861685 0.0 1.328976061474122 0.05977894833053701 0.0 0.35385938685101415 0.03817444323549755 0.0 1.3562412893820113 0.1028255827239851 0.0 0.7147209836153388 0.05383945061484782 0.0 1.1714563844215562 0.10019620467679771 0.0 0.5159128292377428 0.015857790998558042 0.0 0.4975227756723918 0.03008358594566831 0.0 0.07086283545938842 0.013325119211940285 0.0 0.9571763646430703 0.03451049647014419 0.0 0.25874263373234185 0.022141184700970346 0.0 0.16472561094855362 0.008468996329139559 0.0 0.26925796420297293 0.014572001454981645 0.0 0.6676781833893478 -0.004814076717560968 0.0 0.49966139458247827 0.006998635299396879 0.0 1.315905588524351 0.019274039773564837 0.0 0.5425077700580447 0.06182350354363811 0.0 1.229825520649466 -0.1422866899984366 0.0 0.20378144087250877 -0.03752291767169737 0.0 1.205817021676868 0.17346317666371436 0.0 0.8828472573204725 0.17981632999101946 0.0 0.7010655692299195 -0.16792275228385817 0.0 1.1155568012217283 -0.09433644817399195 0.0 1.0384381554911517 -0.22376834549136676 0.0 0.8637287678093544 -0.18257879568384464 0.0 0.8754181468156259 -0.025507272825798604 0.0 0.4406415162676485 -0.048473850130566785 0.0 0.2919862537564223 -0.03306094198010337 0.0 1.3289376084880662 -0.041960244701745905 0.0 0.20925814729367542 -0.013265793848085922 0.0 1.355385949288347 -0.0864989891448443 0.0 0.19249996799600572 -0.01883019730684943 0.0 0.5362153419517273 -0.015833974827541352 0.0 -0.0014231939896880055 -0.010804928625747083 0.0 0.5727591712266782 -0.031736160913908025 0.0 0.8789369951678463 0.2972447581099319 0.0 0.8796195683001072 0.41087235321362775 0.0 0.885143558288635 0.27039256184794663 0.0 0.9122315809049361 0.10991914748706981 0.0 0.8652131709461802 0.22335882825967812 0.0 0.9047786800222208 0.3037948472529996 0.0 0.8572776863231164 0.23357985576727866 0.0 0.8020616849247715 0.18342709227594034 0.0 0.8670772339744843 0.16158918583096699 0.0 0.0 0.0 0.0 0.8415437450472892 0.17675021475862415 0.0 0.8706779034123874 0.17111181653665983 0.0 1.2130576464229859 0.049694869188839544 0.0 1.2378551980613313 0.06492554044259535 0.0 0.890881565475269 0.01320984046439694 0.0 0.595295255246763 -0.025942264353492415 0.0 1.2798379996010871 0.1469659681339165 0.0 0.7175780322569922 -0.17367896108390216 0.0 1.1779213494924068 -0.16464137313146948 0.0 0.9984654968699871 -0.019911975941492997 0.0 1.3235291628356336 -0.00773269557204459 0.0 0.5858996730082755 -0.00016111180185941277 0.0 1.2203005308470116 -0.012645218352847421 0.0 0.983391048523451 0.009213815158255437 0.0 -0.004500825196297939 -0.0066043204244919836 0.0 -0.09627245971120554 0.001298779397478506 0.0 0.9449223749489983 0.3412933737777193 0.0 0.8784993550329513 -0.018429131067153014 0.0 0.42891511898087203 -0.008147780332183174 0.0 0.0 0.0 0.0 1.328573675690963 0.03743215880073664 0.0 1.21289388285229 0.024912193611068646 0.0 1.3171913577183578 0.11450313460185325 0.0 1.252269801686177 -0.04449605071493951 0.0 0.41432371233328746 -0.013795263041601209 0.0 1.2282093993538632 0.010529769497972984 0.0 1.2910117445472777 0.0568200454296214 0.0 0.04123859222241213 -0.009445587361971788 0.0 -0.08276950261765154 -0.004828775141885276 0.0 -0.06776454302276377 -0.007123228433108457 0.0 -0.081505221215813 0.0031574639991227955 0.0 1.1858761428342441 0.2196186229853846 0.0 0.7774934594257433 0.19850340792555357 0.0 0.7779369624333202 0.1542730446887654 0.0 0.7857492665484429 0.1069430469541899 0.0 0.6205959917852392 0.11100798838368975 0.0 0.35444159897406746 0.001432308415128663 0.0 0.09453977134658295 0.003907074913552788 0.0 0.36629761435721075 -0.02060210648265431 0.0 1.0719315650555847 0.07667090015048739 0.0 0.0 0.0 0.0 0.5201959107146771 0.011490122163400732 0.0 0.9318308638993711 0.029260304331011566 0.0 -0.10919057250160998 0.0008146823709788422 0.0 1.0970920712609558 0.2669895216490032 0.0 0.9003457159303234 0.11244845481627876 0.0 1.2805699814015816 -0.04967560038727776 0.0 0.18705118902431978 -0.003381195251062261 0.0 0.3588461078213572 0.018072222322176576 0.0 0.14314699537596068 0.0005237035310910818 0.0 1.3028447619240913 0.039277042672900234 0.0 -0.10616451409866924 -0.0013476421202912637 0.0 -0.07757967722179634 -0.00617061089922604 0.0 -0.09773908217000571 -0.0041908344190782305 0.0 -0.043023411413090684 0.007022249702754035 0.0 -0.09493242954012704 0.0012438542304947747 0.0 -0.11554841610444767 0.0003038255749279916 0.0 -0.06680091281115062 -0.0016945687814101478 0.0 -0.04058678892516553 0.0035654762248492084 0.0 -0.11944071529626582 -0.001741585582769615 0.0 0.07648542795201298 -0.0019317029809301182 0.0 -0.03813794442967396 0.005737970164368602 0.0 -0.12253500175761585 -0.0011050198721303834 0.0 -0.12127484414195182 -0.0005641492539724079 0.0 -0.022771249626839584 -0.002406493624900551 0.0 0.0 0.0 0.0 0.9464852312259372 0.2554653243209972 0.0 0.9513540650457861 0.04013511081505146 0.0 0.22622844261394312 -0.004371326895353728 0.0 0.30920426708358073 -0.004366050991054947 0.0 0.544464994852008 0.021077697634628908 0.0 0.912191839170433 0.04307516075514619 0.0 1.191922115700442 0.03461298126086214 0.0 1.353647830196604 0.014586391593402099 0.0 0.08796615516364803 0.002612481537360178 0.0 -0.03499770542074656 0.0001963333335102005 0.0 0.02368602423903087 -0.012396092630147569 0.0 0.13671035323028172 -0.008752460173571577 0.0 0.1268323322394992 -0.014086372854039965 0.0 0.31690476817485275 -0.02343596657587145 0.0 0.5765200725191563 -0.051533427937037524 0.0 0.8603170225751409 -0.05267743971340043 0.0 0.3681639342217302 -0.032157601456563586 0.0 0.5564683179012998 -0.03600464552287571 0.0 0.6516914172660413 -0.048095662221280436 0.0 0.7710695279358626 -0.041189760303634686 0.0 0.2604341890984869 -0.028962905858262493 0.0 1.2730566709876423 -0.06492053475735447 0.0 1.0590822372816744 -0.05202965190644331 0.0 1.2867301063443906 -0.029193929824490046 0.0 1.0495123230246133 -0.03983665633564062 0.0 -0.04199400798178978 -0.009997848203946889 0.0 1.0277816475704946 -0.06742620118520298 0.0 1.0605994042231346 -0.030160085101749872 0.0 1.2242308950446754 -0.10079594253118893 0.0 -0.10817504133841215 -0.003690469619826191 0.0 0.46168316297609124 -0.04654558967176703 0.0 1.2500312010743428 -0.10584784605194722 0.0 0.13262586453613495 -0.02286663016744051 0.0 -0.12150002478652637 -0.0013902579961940474 0.0 1.2615463599526782 -0.08799162892622477 0.0 0.06374730716372654 -0.023247510923963297 0.0 -0.11085574582633627 -0.003517654215042176 0.0 -0.026151340841917822 0.009043952059236738 0.0 0.04642811086601439 -0.019365176758838448 0.0 -0.06707275935590244 -0.010017306344189491 0.0 0.41951515904157566 -0.05045695272977056 0.0 -0.04716101561348026 -0.013308666719779212 0.0 0.11389144688778077 0.02668991612974387 0.0 -0.08198016329765068 0.004233393566335624 0.0 -0.07236986448301294 -0.009466799083510707 0.0 -0.09891651570816315 -0.0017691877647770882 0.0 0.03954697068893915 0.01576232370810651 0.0 1.2179915628215734 0.1049283740150219 0.0 0.32709179002910566 0.03677683004545502 0.0 0.3046029041480253 -0.047195317191666496 0.0 0.2571345041741336 -0.010163118613942878 0.0 0.709025448753116 -0.0206543053930806 0.0 0.306384531448969 0.005832032308060207 0.0 1.1764336419471997 0.05298476666399319 0.0 0.8885844669291585 0.06093278057027731 0.0 0.9298048644315587 -0.08380701134644704 0.0 -0.047834155416257976 -0.0037745920260450396 0.0 -0.05795251740073409 -0.003926239099684444 0.0 -0.11847643224657042 -0.0017493375383697172 0.0 -0.04568721285487385 0.003986587348347703 0.0 -0.07878546816274996 -0.004732362197833059 0.0 0.32699898294576296 -0.03976857213361506 0.0 1.257923574883437 -0.09418521306198752 0.0 0.6271896868416 -0.06271414737627647 0.0 0.8940175667112443 -0.0871149488207524 0.0 -0.028346215033589417 0.010296625981314492 0.0 0.06088602910844193 -0.02584985660030977 0.0 -0.007897900802755469 -0.01884980880587007 0.0 0.2075997193596504 -0.0417378937706408 0.0 -0.01649538499275679 -0.018126657549924742 0.0 1.2543917759606997 0.10563922628323631 0.0 -0.06636266832927204 -0.004911577198358907 0.0 -0.01344633931787416 0.006635310912582817 0.0 -0.050949739908861966 -0.0040484873787527175 0.0 0.05295178869070529 -0.0253729109582796 0.0 0.33687930468777816 0.02480378499611856 0.0 0.6888485807727068 -0.07140255528018297 0.0 0.5078515437825804 -0.061617710219061025 0.0 0.7879202887975947 -0.06908000059004359 0.0 0.26517490328128746 -0.04035483201111428 0.0 0.8186364928144791 -0.08918468184730233 0.0 1.1665302471136556 -0.09185065015746827 0.0 1.067970934887887 -0.0843868570573008 0.0 1.0413444472344193 -0.07570531533365835 0.0 0.5920464058836813 -0.07141838067829061 0.0 0.5027827135948515 -0.06677145654374038 0.0 0.38845536698803496 -0.05992733938522102 0.0 0.3647026774184825 -0.056811366827658624 0.0 0.14292227672864635 -0.036529130146373934 0.0 0.7850287317936797 -0.08968114492317594 0.0 0.25939186326622427 0.015005189735214102 0.0 0.6065597674948547 0.037972133031277305 0.0 0.06671472469228647 0.006277927965406235 0.0 0.17110523536948052 0.017805108997079867 0.0 -0.0703618085890389 0.00045265037315254746 0.0 1.3328375629944342 -0.024465749524458753 0.0 1.218001679198203 0.041082866816771535 0.0 1.3551275082001228 -0.012134102991896155 0.0 1.326559592106963 -0.06345305698924979 0.0 0.1670552198710531 -0.03931185978264411 0.0 0.3530875082309206 -0.056632059045226675 0.0 0.5581398712347929 0.046675740739333234 0.0 0.0869018334962135 0.015140599425527921 0.0 1.308319106823904 0.004054705552994884 0.0 1.348213908270047 -0.03307421955794385 0.0 0.5187517377793712 0.06604059892905376 0.0 1.3269168746801148 -0.07704635355341054 0.0 0.588184887360108 0.0432984224716545 0.0 1.2822068456574138 0.07170378415043652 0.0 0.33213143410249757 0.033316571587159664 0.0 0.7033618389417505 0.06330943926425513 0.0 1.334773168023751 0.024144375913887677 0.0 1.2311280561488158 -0.02427417098705354 0.0 1.3174112081703635 -0.08710953194441703 0.0 0.8243902131014298 0.06120090188577234 0.0 1.047241039929124 0.0785585182141264 0.0 1.1065450675191335 0.07214491699988217 0.0 1.2669444922871433 0.09776744389028803 0.0 1.1282565926370476 0.09631705488374108 0.0 0.9741812408688905 0.08064465974289584 0.0 0.6679649578668171 0.06640167021235895 0.0 1.2726254530204442 -0.09017968637701489 0.0 0.0 0.0 0.0 1.30798951085829 0.057673311218510215 0.0 0.9164155475239192 0.08828735770032564 0.0 0.32486991336363485 0.04066734007819579 0.0 1.3159035187934842 0.07132878983126985 0.0 0.8986792649971801 0.08427708802063394 0.0 1.270588969232393 0.09066116190436004 0.0 0.5974760249183437 0.06483494683864496 0.0 1.2624217025856181 0.10290203763762014 0.0 0.5492566649729432 0.06597784172965315 0.0 0.25590977386861885 0.03806401996300402 0.0 1.1466179780293115 0.10051926609357477 0.0 0.6609620966006534 0.07303843434409428 0.0 1.072722213272688 0.10217876007687987 0.0 0.844428455444675 0.08887205236172496 0.0 0.7762924502043279 0.08689932527598912 0.0 1.1952391888298326 0.08809618304029285 0.0 1.1156172784881555 0.09105676232633789 0.0 1.3063253361784892 0.08146348633171575 0.0 0.15572614325817427 0.027058433160051173 0.0 1.152893078190604 0.07896088479274319 0.0 1.2170591191770612 0.10567971983945655 0.0 1.158121260425399 0.10662277412463184 0.0 1.235400517978385 0.10780594644878268 0.0 1.24511326420235 0.10820408215649051 0.0 1.291503179087545 0.086582699370874 0.0 1.183485639760914 0.06817973309389255 0.0 0.9469493910100856 0.10062459338968997 0.0 1.2302591506600244 0.09260527775606323 0.0 1.2795302591491267 0.09023087462792005 0.0 1.0457184049369963 0.06505680885264498 0.0 1.1641443776477356 0.10952974616985957 0.0 1.0819107435732032 0.10860183617479828 0.0 1.0608886430127324 0.10526438405944642 0.0 1.233582673271531 0.09738081638970986 0.0 0.0 0.0 0.0 0.6445086817031414 -0.005473909521156131 0.0 1.077925963938144 0.4342878415074252 0.0 1.1670148421574635 0.4222768123011087 0.0 1.0821646928743087 -0.4267149332207168 0.0 0.8655326225333534 -0.22699368394476782 0.0 0.9787989306195936 -0.25549932106016177 0.0 0.8923601928257595 -0.08493833114658272 0.0 1.222703944640346 -0.052382461523836785 0.0 1.0811973653893336 -0.06415207175627093 0.0 1.1985347910704574 -0.10465879463079004 0.0 1.265229440608755 -0.08466568795772447 0.0 1.3154630191403471 -0.053797018127588615 0.0 -0.08370805323408118 -0.0022297255793996924 0.0 -0.05015890054800183 0.0076970297257022355 0.0 0.0014995351508386625 0.009971106621611157 0.0 0.0010835449445356772 0.012048911140068123 0.0 0.1482322525456819 0.026802474260157427 0.0 -0.05738109242956553 0.008385368864771139 0.0 0.06191120184976626 0.022048437855111496 0.0 0.21865520292087331 0.03726417657401323 0.0 0.08552363281930439 0.03850177094633085 0.0 -0.03633993080972977 0.015338615830379652 0.0 1.0348539452696948 0.16070735091889574 0.0 -0.06991032474012804 0.004159486939939759 0.0 1.254271807772671 -0.10114949504269077 0.0 1.1422219282847101 -0.09911838157010258 0.0 0.9513164646351918 -0.09367984483547842 0.0 1.103834146447657 -0.10302299271039785 0.0 1.2377430187681058 -0.10560634996827936 0.0 0.9130044062034944 -0.09660638252652182 0.0 1.245688592372656 -0.10649157055213011 0.0 1.0768454013212 -0.10533571930517505 0.0 1.1324116707621517 -0.10543919732982622 0.0 0.8617946480400107 -0.09505446092224293 0.0 0.9061829912430512 -0.09789259888022202 0.0 0.6249730358148029 -0.07921190411157356 0.0 1.1025544560249536 -0.10713615025112981 0.0 1.2312165970465727 -0.10458418608285631 0.0 1.066331319546594 -0.10413093472808055 0.0 1.1671901218821314 -0.08519021721797045 0.0 1.1909773062809441 -0.10730534093354131 0.0 0.6788163430969195 -0.08151361980697554 0.0 1.1382251573200315 -0.10361212434437383 0.0 0.9358925263082484 -0.0971552064111056