<?xml version="1.0"?>
<VTKFile type="UnstructuredGrid"  version="0.1"  >
<UnstructuredGrid>
<Piece  NumberOfPoints="1289" NumberOfCells="2413">
<Points>
<DataArray  type="Float64"  NumberOfComponents="3"  format="ascii">0 0 0  0 0.41 0  2.2 0.41 0  2.2 0 0  0.1 0.1 0  0.1 0.3 0  0.8 0.3 0  0.8 0.1 0  0.25 0.2 0  0.248976 0.210065 0  0.245948 0.219718 0  0.241038 0.228563 0  0.234448 0.23624 0  0.226448 0.242432 0  0.217365 0.246888 0  0.207571 0.249423 0  0.197468 0.249936 0  0.187467 0.248404 0  0.17798 0.24489 0  0.169395 0.239539 0  0.162062 0.232569 0  0.156283 0.224265 0  0.152293 0.214968 0  0.150257 0.205058 0  0.150257 0.194942 0  0.152293 0.185032 0  0.156283 0.175735 0  0.162062 0.167431 0  0.169395 0.160461 0  0.17798 0.15511 0  0.187467 0.151596 0  0.197468 0.150064 0  0.207571 0.150577 0  0.217365 0.153112 0  0.226448 0.157568 0  0.234448 0.16376 0  0.241038 0.171437 0  0.245948 0.180282 0  0.248976 0.189935 0  1.1 0 0  1.1 0.41 0  0.1 0.2 0  0.45 0.1 0  0.45 0.3 0  0.55 0 0  0.275 0.1 0  0.275 0.3 0  0.275 0 0  0.55 0.41 0  0 0.205 0  0.825 0 0  0.825 0.41 0  0.275 0.41 0  0.1 0.15 0  0.1875 0.1 0  0.1 0.25 0  0.1875 0.3 0  0.132322 0.2 0  0.241426 0.253518 0  0.241426 0.146482 0  0.264574 0.17974 0  0.264574 0.22026 0  0.138434 0.187348 0  0.153372 0.150948 0  0.148413 0.164094 0  0.176495 0.136535 0  0.22768 0.143571 0  0.138434 0.212652 0  0.148413 0.235906 0  0.176495 0.263465 0  0.22768 0.256429 0  0.23125 0.3 0  0.24769 0.24094 0  0.23125 0.1 0  0.24769 0.15906 0  0.26253 0.193641 0  0.190482 0.137872 0  0.166753 0.146661 0  0.157737 0.244461 0  0.190482 0.262128 0  0.203107 0.261264 0  0.253635 0.22977 0  0.203107 0.138736 0  0.253635 0.17023 0  0.261028 0.206206 0  0.167707 0.251809 0  0.143629 0.224191 0  0.215302 0.2591 0  0.270465 0.245894 0  0.215302 0.1409 0  0.270465 0.154106 0  0.284052 0.202587 0  0.14375 0.3 0  0.209375 0.3 0  0.225966 0.278501 0  0.209375 0.1 0  0.225966 0.121499 0  0.211613 0.273759 0  0.211613 0.126241 0  0.143629 0.175809 0  0.1 0.175 0  0.133484 0.164832 0  0.144491 0.249539 0  0.1 0.225 0  0.133484 0.235168 0  0.3625 0.3 0  0.25691 0.253381 0  0.25691 0.146619 0  0.277205 0.188698 0  0.184724 0.275712 0  0.237372 0.268285 0  0.184724 0.124288 0  0.237372 0.131715 0  0.197578 0.273149 0  0.193656 0.286994 0  0.197578 0.126851 0  0.193656 0.113006 0  0.122953 0.187671 0  0.118362 0.153758 0  0.155372 0.258107 0  0.122953 0.212329 0  0.118362 0.246242 0  0.276394 0.27264 0  0.276394 0.12736 0  0.280965 0.170013 0  0.253125 0.3 0  0.14375 0.1 0  0.253125 0.1 0  0.269489 0.26014 0  0.269489 0.13986 0  0.303639 0.184297 0  0.165625 0.3 0  0.134742 0.273113 0  0.257831 0.274737 0  0.255279 0.128499 0  0.3625 0.1 0  0.165625 0.1 0  0.162031 0.132368 0  0.134955 0.126405 0  0.149334 0.125568 0  0.142936 0.139597 0  0.12695 0.140259 0  0.242514 0.285501 0  0.242514 0.114499 0  0.1 0.125 0  0.117483 0.12555 0  0.11154 0.139776 0  0.121875 0.1 0  0.109143 0.1125 0  0.126805 0.114 0  0.220313 0.29129 0  0.351562 0.287369 0  0.207222 0.2866 0  0.220312 0.10871 0  0.1375 0 0  0.20625 0 0  0.207222 0.1134 0  0.11722 0.17118 0  0.1 0.1625 0  0.0778409 0.16875 0  0.0862762 0.15625 0  0 0.15375 0  0 0.1025 0  0.11722 0.22882 0  0.1 0.2375 0  0 0.3075 0  0.0862762 0.23125 0  0.0598995 0.222547 0  0.0860223 0.2125 0  0.289584 0.181469 0  0.300267 0.16446 0  0.163832 0.269071 0  0.149597 0.273325 0  0.1 0.275 0  0.268498 0.285953 0  0.31875 0.3 0  0.294154 0.254672 0  0.296875 0.3 0  0.293558 0.271845 0  0.285095 0.286799 0  0.324298 0.264316 0  0.307866 0.263745 0  0.317093 0.234901 0  0.315485 0.281219 0  0.316547 0.250625 0  0.344693 0.243731 0  0.331592 0.251147 0  0.35129 0.270663 0  0.338689 0.263683 0  0.340625 0.3 0  0.249849 0.264383 0  0.265097 0.11422 0  0.284688 0.156136 0  0.242188 0.324017 0  0.0856613 0.2625 0  0.132812 0.0612217 0  0.264062 0.0612217 0  0.198437 0.07598340000000001 0  0.0860223 0.1375 0  0.0794526 0.191089 0  0.285228 0.140397 0  0.298655 0.148737 0  0.31875 0.1 0  0.327335 0.15374 0  0.296875 0.1 0  0.312289 0.155283 0  0.313348 0.135607 0  0.321802 0.173916 0  0.298433 0.134116 0  0.112124 0.2625 0  0.127526 0.259083 0  0.121875 0.3 0  0.0682687 0.241503 0  0.1 0.2875 0  0.117762 0.28125 0  0.107813 0.3 0  0.103906 0.313849 0  0.0778409 0.28125 0  0.1375 0.41 0  0.0862762 0.29375 0  0.08886860000000001 0.24375 0  0.307812 0.338778 0  0.307812 0.292227 0  0.33216 0.279164 0  0.387888 0.266414 0  0.264063 0.31948 0  0.110937 0.07598340000000001 0  0.242188 0.07598340000000001 0  0.319914 0.11839 0  0.340625 0.1 0  0.334448 0.133793 0  0.329687 0.108539 0  0.346259 0.118491 0  0.360334 0.173636 0  0.327539 0.205033 0  0.132812 0.288712 0  0.362436 0.278836 0  0.368105 0.259418 0  0.4125 0.41 0  0.329687 0.324017 0  0.329687 0.292306 0  0.285938 0.318952 0  0.417187 0.338778 0  0.324481 0.14148 0  0.351562 0.106771 0  0.40625 0.1 0  0.341028 0.168342 0  0.319221 0.190479 0  0.335292 0.184501 0  0.305563 0.20794 0  0.220313 0.31948 0  0.132812 0.332772 0  0.0865876 0.311259 0  0.0598995 0.302453 0  0.0906541 0.343255 0  0.353543 0.255837 0  0.36574 0.237633 0  0.405007 0.254279 0  0.275795 0.352123 0  0.4125 0 0  0.35493 0.137394 0  0.366563 0.120618 0  0.35917 0.205246 0  0.198438 0.318952 0  0.0626109 0.263892 0  0.40625 0.3 0  0.354809 0.155936 0  0.386512 0.146872 0  0.373101 0.159939 0  0.384375 0.1 0  0.343394 0.19929 0  0.350682 0.185683 0  0.368101 0.189748 0  0.344016 0.221511 0  0.391108 0.213329 0  0.376279 0.204783 0  0.398843 0.182768 0  0.375804 0.222746 0  0.390665 0.196958 0  0.394004 0.23518 0  0.359883 0.222828 0  0.419908 0.204359 0  0.404243 0.204783 0  0.412615 0.224526 0  0.20625 0.41 0  0.165625 0.325257 0  0.0347982 0.244954 0  0.379558 0.247154 0  0.34165 0.147603 0  0.372264 0.136992 0  0.388988 0.121989 0  0.373437 0.108554 0  0.351562 0.31948 0  0.391367 0.16527 0  0.399572 0.223324 0  0.452011 0.227371 0  0.40877 0.239392 0  0.431491 0.237337 0  0.421224 0.250459 0  0.449619 0.262098 0  0.418865 0.276779 0  0.437063 0.252274 0  0.415673 0.263227 0  0.430988 0.266772 0  0.402767 0.273419 0  0.452967 0.244883 0  0.428125 0.3 0  0.408502 0.286186 0  0.384375 0.3 0  0.392267 0.285807 0  0.465927 0.219339 0  0.43489 0.283846 0  0.376424 0.286289 0  0.625 0.3 0  0.473533 0.205186 0  0.461713 0.255517 0  0.5375 0.3 0  0.465725 0.235405 0  0.44631 0.201425 0  0.471875 0.3 0  0.494307 0.227729 0  0.459448 0.206736 0  0.462294 0.180792 0  0.478933 0.227536 0  0.486793 0.21381 0  0.486322 0.251373 0  0.50065 0.215318 0  0.54005 0.175389 0  0.474633 0.189893 0  0.512916 0.208697 0  0.49531 0.199967 0  0.475889 0.175275 0  0.625 0.1 0  0.459311 0.153933 0  0.513645 0.242704 0  0.392892 0.248539 0  0.374815 0.271913 0  0.365974 0.14871 0  0.395312 0.109184 0  0.417061 0.123981 0  0.483196 0.277003 0  0.381967 0.179632 0  0.429898 0.219374 0  0.433473 0.206165 0  0.43149 0.181038 0  0.444208 0.215487 0  0.472985 0.247309 0  0.49375 0.3 0  0.475579 0.262714 0  0.49916 0.274293 0  0.501175 0.184809 0  0.514164 0.225681 0  0.543648 0.214977 0  0.5341630000000001 0.23481 0  0.527396 0.216171 0  0.5375 0.1 0  0.534548 0.202315 0  0.561545 0.192513 0  0.5494289999999999 0.201221 0  0.570923 0.218346 0  0.412582 0.149833 0  0.489327 0.264745 0  0.502439 0.254775 0  0.462391 0.271166 0  0.496775 0.241732 0  0.5294410000000001 0.268606 0  0.482812 0.291099 0  0.46879 0.285038 0  0.452663 0.284065 0  0.51789 0.257882 0  0.53408 0.252026 0  0.560142 0.243543 0  0.545708 0.243474 0  0.547532 0.229019 0  0.55282 0.265323 0  0.398971 0.153424 0  0.400349 0.135684 0  0.410135 0.168145 0  0.428823 0.161323 0  0.415266 0.183779 0  0.329687 0.0810483 0  0.395312 0.0612217 0  0.373437 0.318952 0  0.439062 0.324017 0  0.561816 0.229354 0  0.585029 0.239287 0  0.431827 0.139854 0  0.446796 0.168929 0  0.351562 0.07598340000000001 0  0.395313 0.318944 0  0.54337 0.150762 0  0.460937 0.31948 0  0.418412 0.137529 0  0.428125 0.1 0  0.442783 0.152332 0  0.450742 0.134294 0  0.373437 0.0805201 0  0.384383 0.342558 0  0.482812 0.318952 0  0.429239 0.127457 0  0.444274 0.117405 0  0.426548 0.113815 0  0.49375 0.1 0  0.488954 0.113984 0  0.457973 0.121842 0  0.471621 0.137346 0  0.515625 0.325257 0  0.48125 0.41 0  0.417187 0.07598340000000001 0  0.496363 0.126778 0  0.479043 0.155715 0  0.439062 0.0805201 0  0.481795 0.126919 0  0.471875 0.1 0  0.489227 0.142159 0  0.515625 0.1 0  0.520062 0.147117 0  0.501244 0.161791 0  0.505431 0.112984 0  0.505344 0.14029 0  0.526563 0.119081 0  0.5181750000000001 0.131908 0  0.539868 0.136937 0  0.460937 0.108383 0  0.474242 0.114415 0  0.460937 0.0810483 0  0.487841 0.167168 0  0.526563 0.0612217 0  0.526563 0.106406 0  0.537619 0.112743 0  0.58125 0.1 0  0.559375 0.1 0  0.482812 0.08105569999999999 0  0.471883 0.0587655 0  0.570312 0.129396 0  0.548437 0.07598340000000001 0  0.504687 0.08105569999999999 0  0.49375 0.0470127 0  0.570312 0.112663 0  0.592798 0.12103 0  0.553986 0.12103 0  0.570312 0.0805201 0  0.48125 0 0  0.114787 0.2 0  0.160769 0.284765 0  0.175816 0.288361 0  0.162602 0.116048 0  0.154687 0.07598340000000001 0  0.176562 0.0805201 0  0.0598995 0.147547 0  0.307812 0.109924 0  0.291279 0.117157 0  0.278491 0.112989 0  0.285937 0.07598340000000001 0  0.307812 0.0805201 0  0.296928 0.196743 0  0.318141 0.218507 0  0.330208 0.227509 0  0.301397 0.225668 0  0.302706 0.241401 0  0.292574 0.21424 0  0.282762 0.230935 0  0.284351 0.244775 0  0.269553 0.23261 0  0.278572 0.217242 0  0.226924 0.342606 0  0.446928 0.185396 0  0.515625 0.3 0  0.504687 0.288879 0  0.515256 0.276534 0  0.529479 0.285328 0  0.58125 0.3 0  0.541969 0.272936 0  0.559375 0.3 0  0.556796 0.282529 0  0.543473 0.287206 0  0.581429 0.267774 0  0.566728 0.271171 0  0.570869 0.255585 0  0.577404 0.283865 0  0.603125 0.3 0  0.597531 0.28035 0  0.570312 0.338778 0  0.592188 0.292492 0  0.603513 0.256094 0  0.614063 0.286265 0  0.610329 0.27064 0  0.632708 0.251285 0  0.657223 0.261594 0  0.618789 0.257807 0  0.614188 0.22987 0  0.630935 0.265614 
[...]
<PointData  Vectors="v"> 
	<DataArray  type="Float64"  Name="v"  NumberOfComponents="3" format="ascii">
0.0 0.0 0.0 0.0 0.0 0.0 0.0 0.0 0.0 0.0 0.0 0.0 0.796238624547498 -0.1960076806228506 0.0 0.8404000279050635 0.20773683208356597 0.0 1.1678732095816882 -0.06221211393689744 0.0 1.1379156161693798 0.05347460005497462 0.0 0.0 0.0 0.0 0.0 0.0 0.0 0.0 0.0 0.0 0.0 0.0 0.0 0.0009216953658721837 0.0009089369487464674 0.0 0.0029465110573036633 0.004967714980990976 0.0 0.0012450433032798402 0.002167766331361373 0.0 0.0 0.0 0.0 0.0 0.0 0.0 0.0 0.0 0.0 0.0 0.0 0.0 0.0 0.0 0.0 0.0 0.0 0.0 0.0 0.0 0.0 0.0 0.0 0.0 0.0 0.0 0.0 0.0 0.0 0.0 0.0 0.0 0.0 0.0 0.0 0.0 0.0 0.0 0.0 0.0 0.0 0.0 0.0 0.0 0.0 0.0 0.0 0.0 0.0 0.0 0.0 0.0 0.0 0.0 -0.0003029846981600214 0.0005207405005440695 0.0 -0.002396773791405854 0.004287023013380587 0.0 0.0007810071484445786 -0.0006731824697706823 0.0 0.0 0.0 0.0 0.0 0.0 0.0 0.0 0.0 0.0 0.0 0.0 0.0 0.0 0.0 0.0 0.7613290367080127 -0.0013271163004144617 0.0 1.275988305701496 0.08287282928513247 0.0 1.265693819928743 -0.07738514200910099 0.0 0.0 0.0 0.0 1.3536893209000997 -0.13291657632631276 0.0 1.3581313889757678 0.1548536737206044 0.0 0.0 0.0 0.0 0.0 0.0 0.0 1.0 0.0 0.0 0.0 0.0 0.0 0.0 0.0 0.0 0.0 0.0 0.0 0.8426020979319481 -0.23192375335765164 0.0 1.1514517549334629 -0.3444041012878052 0.0 0.8637778329626351 0.22926724571808732 0.0 1.1662348325084069 0.35398986348370676 0.0 0.4282353061543965 -0.004036903529593911 0.0 0.16730189609552107 0.06305983023948206 0.0 0.1677199856046208 -0.0601089143526054 0.0 -0.027865185411258115 -0.03853896628448019 0.0 -0.025993082671740702 0.0365929654845853 0.0 0.33438860877478355 -0.27991823403084504 0.0 0.8579127219044549 -0.6735253895210217 0.0 0.6400153320963505 -0.6882147642214358 0.0 1.2061380722970017 -0.6133618532665958 0.0 0.4177313627029031 -0.06825716553143085 0.0 0.3304380916726021 0.26867355048058605 0.0 0.6428169861107039 0.6692624539332999 0.0 1.1851786873495167 0.615316791389851 0.0 0.4061445343979095 0.0722620761382987 0.0 1.3131262154953192 0.2609286514211352 0.0 0.3252555247413397 0.25246519074957385 0.0 1.302736322405042 -0.24043355435231029 0.0 0.317127444892281 -0.24232061861752036 0.0 -0.033741093863384676 -0.017037850344317047 0.0 1.1247511927275171 -0.39878420160465966 0.0 1.0931978570502408 -0.7243844403347386 0.0 0.8520524877725547 0.770700566194242 0.0 1.1315658350736189 0.3995280599668468 0.0 0.7597001302243457 0.18588854042335015 0.0 0.10920751491999406 0.05166630099625746 0.0 0.7691114018188122 -0.18202929097588388 0.0 0.11152357560900318 -0.05042405557619375 0.0 -0.029741494975722434 0.01926840088091087 0.0 1.0275375898599324 0.7188576944529192 0.0 0.442362724041511 0.5291281466626635 0.0 0.4572474749542212 0.1765064078685003 0.0 0.2734126872303926 0.06939308062848724 0.0 0.4649851209093662 -0.1748877168427294 0.0 0.2785830268397989 -0.06500846598570742 0.0 -0.07553555548877229 0.0022628892589638635 0.0 0.9654627500309225 0.3173539500179573 0.0 1.2604653592757085 0.313068962768351 0.0 1.2450456515183017 0.28868757336450246 0.0 1.234928507410301 -0.30774593925498206 0.0 1.2479969503324528 -0.2811279346901587 0.0 1.2202594575647183 0.3308238194095392 0.0 1.2261229420349276 -0.3228362746757537 0.0 0.4429103635924642 -0.5446409456235337 0.0 0.8020225239944809 -0.13967016032893328 0.0 0.6715251039586232 -0.41976720651856386 0.0 0.8773607472470168 0.5937889834217005 0.0 0.7993015614035367 0.14276430303686846 0.0 0.6764820513905309 0.42008508480867224 0.0 1.2925483807459701 -0.007217241034897309 0.0 0.2945518896835483 0.14466963544251035 0.0 0.2949868238847637 -0.13545937696054006 0.0 -0.0547285479336395 -0.012969643818018831 0.0 1.265091472487691 0.47169404778593466 0.0 0.768482945611603 0.12093926721422711 0.0 1.2611222315830886 -0.47339305965475015 0.0 0.7894138674892579 -0.11534106254140508 0.0 1.2756539001798175 0.4179033455861476 0.0 1.253967824896679 0.4009997417651477 0.0 1.2715685020333078 -0.41438765054389026 0.0 1.2447477838190957 -0.38122774655193625 0.0 0.5835341163813693 -0.160588207439294 0.0 0.7964442511811871 -0.3318572304245525 0.0 1.0104333181961895 0.6037423253463651 0.0 0.5917464422853743 0.15054828170440154 0.0 0.8125546484114595 0.3316558123281626 0.0 0.7460710799010172 0.08083862226067082 0.0 0.782657493209054 -0.07322590720825586 0.0 0.0523923037224783 -0.022012195178092376 0.0 1.3632677014224779 0.20743419132295055 0.0 0.9298388872993277 -0.3222744312224371 0.0 1.3446925575179522 -0.1900397852432292 0.0 0.4104470908352616 0.09099535226239631 0.0 0.4273711079561653 -0.0787525252995126 0.0 -0.054758867632361305 -0.008155310764315702 0.0 1.0573385776655528 0.35392656580318654 0.0 0.9431540382251252 0.3914223310875234 0.0 0.9219863132567762 0.11247777508221632 0.0 0.8245038355454517 -0.08673028883046745 0.0 1.3070056328424435 0.0166919399261711 0.0 1.0275378915693378 -0.34525428485989407 0.0 1.0744966228252892 -0.5703871893355618 0.0 0.9301431485288754 -0.3894434483579068 0.0 0.9974776574626497 -0.4387070030468529 0.0 0.9329425697856027 -0.5428818265936644 0.0 0.8655413999310644 -0.40654691824260647 0.0 1.273599783605257 0.2328612741690468 0.0 1.271324271918551 -0.21953878547816527 0.0 0.8526618851735716 -0.2356586508442527 0.0 0.8790589369638262 -0.3099907030750827 0.0 0.8529031326331856 -0.29908264421654485 0.0 0.8514199175294517 -0.25643466612631716 0.0 0.8542192958531709 -0.25280998262962945 0.0 0.896283997689542 -0.3195066726454884 0.0 1.3290849725187002 0.3154389547441442 0.0 1.0844263589702392 -0.002466139990823438 0.0 1.3145312439113164 0.3622114008304574 0.0 1.3215047822858985 -0.29615983230789433 0.0 0.0 0.0 0.0 0.0 0.0 0.0 1.2995202854362657 -0.3495810244775826 0.0 0.7142515282835231 -0.26736682846727733 0.0 0.820397404152066 -0.21079947518129502 0.0 0.8711746894832474 -0.1107766352534132 0.0 0.8624443693521322 -0.16379165593403391 0.0 0.9375 0.0 0.0 0.7500000000000001 0.0 0.0 0.7224692911930976 0.26525773335333297 0.0 0.824034563125809 0.2001111439245157 0.0 0.7499999999999999 0.0 0.0 0.8697149314552642 0.1277974076858807 0.0 0.9287118288816838 0.04282593333904454 0.0 0.848112519014181 0.045041850565684674 0.0 -0.035088960695533085 -0.011576315607591677 0.0 0.09185127002717887 -0.017496536289603425 0.0 1.1150238008133186 0.554710723079906 0.0 1.019011302979692 0.4730903397193444 0.0 0.8809681722672509 0.24544660936281087 0.0 1.2000091242536775 0.13907125731507464 0.0 1.3287456696448459 0.059820589292242606 0.0 0.35343706496573857 0.038094892731888326 0.0 1.3560120809130445 0.10289569726064221 0.0 0.7142387635764005 0.053776526901202125 0.0 1.171076200448958 0.10024059155589016 0.0 0.5153865850632144 0.01579882183799623 0.0 0.49713978397673364 0.030048356159668266 0.0 0.07055630113622843 0.013060730118394868 0.0 0.9566543087796879 0.034525567731715674 0.0 0.2583774184934807 0.021986482630766736 0.0 0.16412653311695377 0.008218281347610726 0.0 0.268728563598392 0.014415450037956152 0.0 0.6670212795582371 -0.004881277029445752 0.0 0.49909070772677067 0.006917731002030682 0.0 1.315569791846802 0.019313225394510528 0.0 0.5424031858069934 0.06242771474531804 0.0 1.230411451925987 -0.14203928502993415 0.0 0.20287977798808052 -0.03763324456596952 0.0 1.2056627423611046 0.173498138151649 0.0 0.8828226147517756 0.17972258667392693 0.0 0.7011335532875582 -0.16797871131672784 0.0 1.1156183485727962 -0.09417835718386051 0.0 1.0385994021102698 -0.22380396599253063 0.0 0.8637548073278959 -0.18267223630942495 0.0 0.8754205248486754 -0.02561628420598418 0.0 0.44026453751870426 -0.0482566188922923 0.0 0.2912789396751313 -0.03315517840453993 0.0 1.3290837881719504 -0.04186908462475681 0.0 0.20908976132052523 -0.013461848696958748 0.0 1.3556135718554831 -0.08635001265051079 0.0 0.19212881503071336 -0.019038834636233213 0.0 0.5361826959814466 -0.015749042574577054 0.0 -0.001449872020215675 -0.01122644222792084 0.0 0.5728755805197182 -0.03155507812212934 0.0 0.8788888414289696 0.29712220733235906 0.0 0.8795567277490605 0.41072938661354913 0.0 0.8850851312198287 0.27029766516784953 0.0 0.9122187338307891 0.10983728882744274 0.0 0.8651748475091968 0.223270659346396 0.0 0.9047230093837029 0.3036838185141234 0.0 0.8572320966615843 0.2334935995860376 0.0 0.8020212049768985 0.1833579466476341 0.0 0.8670534758510312 0.16151730823067353 0.0 0.0 0.0 0.0 0.8415157407646159 0.1766780376211899 0.0 0.8706544009960261 0.1710023209894572 0.0 1.2130296394676905 0.04979475896565604 0.0 1.2374749268071203 0.06496051876938061 0.0 0.8902884953342001 0.01321069213928077 0.0 0.594327683531544 -0.026151253119703108 0.0 1.2797593852034599 0.14709645436615704 0.0 0.7176240667778434 -0.1737461973636955 0.0 1.1780910487534244 -0.16457475146702147 0.0 0.9990662258178016 -0.01976699862742922 0.0 1.323791248277802 -0.007681412892138496 0.0 0.586086594581501 -0.0001541478131306997 0.0 1.2207673016968612 -0.012513296542271984 0.0 0.9839333254871988 0.00925385153393756 0.0 -0.004223822334329594 -0.007156664354052423 0.0 -0.0963004779816658 0.0008401144771570248 0.0 0.9448509076257585 0.34118203727885327 0.0 0.8778069900847949 -0.01847106286437026 0.0 0.4280964406050997 -0.008358381183623271 0.0 0.0 0.0 0.0 1.3285469700916628 0.037526152586302604 0.0 1.2124324779292601 0.024947914736438075 0.0 1.3171007919158986 0.11460088805267366 0.0 1.2522605371523923 -0.04431326497072385 0.0 0.41422269369708653 -0.013801718282379138 0.0 1.2286369706169675 0.010554050246633943 0.0 1.2914389155531218 0.056853252224305734 0.0 0.04133761960069693 -0.00984676305556975 0.0 -0.08271927461668363 -0.0052913260379526955 0.0 -0.0676895346899985 -0.0076136752702747135 0.0 -0.08147029487760041 0.0027503014584377822 0.0 1.1857008615616087 0.21967145653221942 0.0 0.7774342145247448 0.19843864354823865 0.0 0.7779114855070005 0.1542128236018461 0.0 0.7857360107929312 0.10689937679486045 0.0 0.6205699909792366 0.1109658174968217 0.0 0.35373249229345105 0.0012564922232427003 0.0 0.0937899355379195 0.003471965834992606 0.0 0.3649756348745286 -0.02102327789597083 0.0 1.071849706636534 0.07672528757869249 0.0 0.0 0.0 0.0 0.5205142905834422 0.011419073711838097 0.0 0.9324022318228876 0.029233405603830042 0.0 -0.10933380646803335 0.00018191487350786736 0.0 1.0969438952893793 0.26694454575536125 0.0 0.9003330115330184 0.11238508630178193 0.0 1.2800071097396555 -0.04960325862993753 0.0 0.18727480742503014 -0.0036944939482180953 0.0 0.3594954409580308 0.017707160088256207 0.0 0.14361916510183753 3.7658228023246367e-05 0.0 1.3031822362046546 0.03926657836135296 0.0 -0.10617763481752007 -0.0018854756444565777 0.0 -0.07745526685269792 -0.006736856622464338 0.0 -0.09761007600490372 -0.004898391497263944 0.0 -0.04334390441253283 0.00658504049391942 0.0 -0.0953873929514733 0.0004044249398407597 0.0 -0.11572726279751964 -0.00046374267724499387 0.0 -0.06638298145862667 -0.00257813856892276 0.0 -0.04119760861744758 0.0029077860393778316 0.0 -0.11944355964817642 -0.002613902316939402 0.0 0.07544269446306481 -0.0025794488819758273 0.0 -0.03860809231764548 0.005210315387269822 0.0 -0.12280159655512102 -0.002021934677896525 0.0 -0.12153102026237723 -0.0014915370337483698 0.0 -0.023741545195538002 -0.0032471579929294735 0.0 0.0 0.0 0.0 0.9463821616327645 0.25539467581058556 0.0 0.951352365372454 0.04010082980584458 0.0 0.22524680200527267 -0.0047887832845185515 0.0 0.30925731667841405 -0.004498362079961338 0.0 0.5449448408157633 0.02091378512615447 0.0 0.912859856277953 0.042972567708142284 0.0 1.1924244647273445 0.03459489631871605 0.0 1.3535954732853999 0.014662442202337252 0.0 0.08865418973207691 0.0019347676890734966 0.0 -0.03581237587130043 -0.0006124966194347888 0.0 0.02226959271468016 -0.012687726880133211 0.0 0.13539679038297636 -0.009405929843164022 0.0 0.12528545319070605 -0.014661934739194594 0.0 0.31531000154332284 -0.023887803626106603 0.0 0.5745453408376832 -0.051443001427893785 0.0 0.8591309258108487 -0.05272060236090945 0.0 0.3663045315996347 -0.032437405135521194 0.0 0.5550729356290678 -0.03627399131335827 0.0 0.6501227187662413 -0.04821490717800514 0.0 0.770016297489586 -0.041338356243182744 0.0 0.25841942259700607 -0.029061333694689235 0.0 1.2723769526212563 -0.06472236275618945 0.0 1.05818434805802 -0.05202844668492286 0.0 1.286265159965649 -0.029175358329716766 0.0 1.0487407440198333 -0.03988368959306707 0.0 -0.04315214444089213 -0.009903631036832282 0.0 1.0265437183284543 -0.06723696205792465 0.0 1.059924456549336 -0.030197891288329212 0.0 1.228177634394945 -0.10253704030504977 0.0 -0.10859439233828662 -0.0032792678951111378 0.0 0.45944900446227027 -0.04626781010039876 0.0 1.2505874122649105 -0.10444364243030639 0.0 0.13075801077203503 -0.02267932142766467 0.0 -0.12170305012234342 -0.0019135814132278956 0.0 1.2608120417513924 -0.08721110881986113 0.0 0.062153845298888274 -0.02170734800563137 0.0 -0.11132408314108892 -0.0036402714590152026 0.0 -0.025270989847969667 0.009063286049593998 0.0 0.04484562493345691 -0.018559052390846303 0.0 -0.06796093618800093 -0.0088921909417708 0.0 0.41708114086959935 -0.049402844771700816 0.0 -0.048101629842711845 -0.011324945358690391 0.0 0.11426595914114128 0.031287417928814044 0.0 -0.08159136003493618 0.004677472669969568 0.0 -0.07295675340994749 -0.006547749304146402 0.0 -0.09907462949833766 -8.783440170549058e-05 0.0 0.04075441163933321 0.01635610802504333 0.0 1.2141988397781291 0.1031106527677111 0.0 0.3288855813246478 0.03680615780963607 0.0 0.3025851332077369 -0.044671277156003594 0.0 0.25597407824116564 -0.010639251745755274 0.0 0.7082276531237732 -0.02078122769538641 0.0 0.3067531430513845 0.005551842252825042 0.0 1.1770088134119556 0.05294826929900913 0.0 0.889518256039339 0.06085655728261726 0.0 0.9279187005352213 -0.08273508106009464 0.0 -0.04745620858568202 -0.004532113048750349 0.0 -0.058894903726652216 -0.004692695441220308 0.0 -0.11884172182102327 -0.0025328431019512017 0.0 -0.04502065763609688 0.0032203902738716615 0.0 -0.07960914018316977 -0.0053264264469666195 0.0 0.324718565707419 -0.03923341448771613 0.0 1.2573936028009185 -0.09308364881623155 0.0 0.6248753253189236 -0.06195568059746532 0.0 0.892063829277339 -0.08558855260569938 0.0 -0.02769361156168544 0.01236943050892651 0.0 0.059571968466089566 -0.02299782157259445 0.0 -0.008327070480768476 -0.013756150857018076 0.0 0.2062973661359223 -0.03787747483377419 0.0 -0.017237596374180007 -0.014176722032965017 0.0 1.2536079516649057 0.106937222189426 0.0 -0.06661754056907428 -0.00034454810795429255 0.0 -0.013943227976454415 0.01299803916538173 0.0 -0.05115117300585552 0.001620025634547548 0.0 0.05342421169130114 -0.01894126246919737 0.0 0.3379647873190185 0.024303990682025083 0.0 0.6864923572106201 -0.0701407097485913 0.0 0.5054333654103011 -0.05978828338925533 0.0 0.7859610236190594 -0.06858008133337916 0.0 0.2629724592624858 -0.038793791994778254 0.0 0.816973155650197 -0.08666393813538963 0.0 1.1654127170648763 -0.09080023069941207 0.0 1.0665202351464793 -0.0836309349600478 0.0 1.0399572876316057 -0.07526609819726558 0.0 0.5897879456793295 -0.06896574398307302 0.0 0.5010297039749743 -0.06355026973085695 0.0 0.38821972852700126 -0.05534576945419404 0.0 0.36367749627743245 -0.05267405602913793 0.0 0.14238866440953513 -0.031626855852150436 0.0 0.7843159439813007 -0.08664526383663708 0.0 0.2602611419232058 0.014469023736975393 0.0 0.6073958792494538 0.03771902760076912 0.0 0.06758194537524093 0.005501904421461756 0.0 0.17235904706692232 0.017213425740110047 0.0 -0.06988121647163414 -0.0004352384151425406 0.0 1.3328173101643055 -0.024336273897663678 0.0 1.2179214382307633 0.041167434902796826 0.0 1.3550149741111146 -0.012051209087720855 0.0 1.326455856818557 -0.06309264086195694 0.0 0.1671628439978646 -0.03372127683118614 0.0 0.354872193486108 -0.05150242748082154 0.0 0.5595032320545099 0.04645822595431653 0.0 0.08815111389567969 0.014739080393757228 0.0 1.3082385106352747 0.0041510458623681915 0.0 1.3480547100433848 -0.03295740563631569 0.0 0.519814645396085 0.06964537837966908 0.0 1.3267705562136087 -0.07646409625110841 0.0 0.5892922682543771 0.043036612176240704 0.0 1.2827333903164817 0.07189835827065756 0.0 0.33372493309633344 0.03304472684741986 0.0 0.7049464388515383 0.06346101344624729 0.0 1.3347670876074325 0.024206041697976972 0.0 1.2311332828217936 -0.024194653541846044 0.0 1.3174301915612343 -0.08632149519274568 0.0 0.8255479453799441 0.06116798364341976 0.0 1.0483571119095316 0.07881706076020699 0.0 1.1074230314290894 0.07223134055009063 0.0 1.2672803925317238 0.09884819613704199 0.0 1.1293431936419405 0.09749549169717421 0.0 0.9755693629735875 0.08112386758485331 0.0 0.6699257039801103 0.06704587690163176 0.0 1.273334081881142 -0.08935395362373193 0.0 0.0 0.0 0.0 1.307995919870394 0.05783032202050736 0.0 0.9181154757948917 0.08973469125469814 0.0 0.326823741731197 0.0413995400159954 0.0 1.3159964042197156 0.07165660054216848 0.0 0.9004198167262858 0.08531275266217452 0.0 1.2711313298668445 0.09140917301203914 0.0 0.5996259033906068 0.06603653102740176 0.0 1.262281526087197 0.10421225621174744 0.0 0.5511177951657579 0.06852002279018124 0.0 0.25768515247240364 0.03992302243128581 0.0 1.147435285892585 0.102019470312643 0.0 0.663048535758581 0.07485060757687856 0.0 1.073417446902369 0.10416637889784745 0.0 0.8460949648044985 0.09105990871809688 0.0 0.7774486294610641 0.08973195748922001 0.0 1.1961505179950995 0.08869255779503185 0.0 1.1167958324384655 0.09189184818265936 0.0 1.3063537892828325 0.08199954225478885 0.0 0.15730946369596283 0.02817424798006991 0.0 1.1518305356957719 0.07952856274887278 0.0 1.2169622050924829 0.10728358644700454 0.0 1.1579695282417932 0.10845180889499327 0.0 1.2329167238101173 0.10819280689178293 0.0 1.243535536289223 0.10925004137600922 0.0 1.2913048921825905 0.08731003848735683 0.0 1.183182522715291 0.06860569676781793 0.0 0.9459775377470824 0.10305648029053067 0.0 1.2287438223464056 0.09317990619917538 0.0 1.2790798257923557 0.09108434745865954 0.0 1.0448752033997248 0.0654875077553276 0.0 1.1624193882789757 0.11087018464272334 0.0 1.079026615706075 0.10965262981030717 0.0 1.0605234142130953 0.10742042662309506 0.0 1.2316134655596414 0.09753279646581568 0.0 0.0 0.0 0.0 0.6445071389300542 -0.005639924273859034 0.0 1.0778243574065178 0.4341634028455654 0.0 1.166886750933957 0.42215246422870845 0.0 1.082273852264569 -0.4268490183685003 0.0 0.8656305300067826 -0.22706081186157434 0.0 0.9789351775734367 -0.2555664540687885 0.0 0.8923706567501872 -0.08500196081361852 0.0 1.2230910155485115 -0.052254830975485854 0.0 1.0818081269538966 -0.06400347802650357 0.0 1.1987887028889825 -0.10446125217811902 0.0 1.2652907201096557 -0.08454106467742205 0.0 1.3154062125149002 -0.05363339817633875 0.0 -0.08360559111734979 -0.00265120666579191 0.0 -0.05027605990407456 0.007324882238988255 0.0 0.0011916733311400703 0.009634258713916821 0.0 0.0009711414174400742 0.011721440049827593 0.0 0.14800471983981783 0.026546519199748535 0.0 -0.05735245646922245 0.008021730295903742 0.0 0.061868144903051085 0.02181695699156394 0.0 0.21845121246168275 0.037189677456762237 0.0 0.08565280341954278 0.03839364182494137 0.0 -0.036276003346242855 0.01505017476352357 0.0 1.03473370726003 0.16072734614600062 0.0 -0.06933531484585853 0.0036132014435220528 0.0 1.2541797078293635 -0.09979149635794493 0.0 1.1412014770782088 -0.09761726366333626 0.0 0.9497155482595865 -0.09176109137037919 0.0 1.1032365155126218 -0.10107845557371994 0.0 1.2401214231101536 -0.10516363830180607 0.0 0.9121025989723871 -0.09406037746411222 0.0 1.2471876297916102 -0.10538017575669352 0.0 1.0772981774994197 -0.10329690389269194 0.0 1.1325071487697174 -0.10355064324697094 0.0 0.8632929848433221 -0.0925074222922141 0.0 0.9066609388720037 -0.09525018111368565 0.0 0.6254118722212311 -0.07540453964477652 0.0 1.1043116712811254 -0.10559260896216266 0.0 1.2345119480236764 -0.10507355915715536 0.0 1.0694591253693526 -0.10324089380984225 0.0 1.1688255963406438 -0.08521642497544847 0.0 1.1938652445608937 -0.10691746398703585 0.0 0.6824354029221237 -0.07865498935661447 0.0 1.1423878099398277 -0.10414588938956798 0.0 0.9400621034280735 -0.09621