<?xml version="1.0"?>
<VTKFile type="UnstructuredGrid"  version="0.1"  >
<UnstructuredGrid>
<Piece  NumberOfPoints="1289" NumberOfCells="2413">
<Points>
<DataArray  type="Float64"  NumberOfComponents="3"  format="ascii">0 0 0  0 0.41 0  2.2 0.41 0  2.2 0 0  0.1 0.1 0  0.1 0.3 0  0.8 0.3 0  0.8 0.1 0  0.25 0.2 0  0.248976 0.210065 0  0.245948 0.219718 0  0.241038 0.228563 0  0.234448 0.23624 0  0.226448 0.242432 0  0.217365 0.246888 0  0.207571 0.249423 0  0.197468 0.249936 0  0.187467 0.248404 0  0.17798 0.24489 0  0.169395 0.239539 0  0.162062 0.232569 0  0.156283 0.224265 0  0.152293 0.214968 0  0.150257 0.205058 0  0.150257 0.194942 0  0.152293 0.185032 0  0.156283 0.175735 0  0.162062 0.167431 0  0.169395 0.160461 0  0.17798 0.15511 0  0.187467 0.151596 0  0.197468 0.150064 0  0.207571 0.150577 0  0.217365 0.153112 0  0.226448 0.157568 0  0.234448 0.16376 0  0.241038 0.171437 0  0.245948 0.180282 0  0.248976 0.189935 0  1.1 0 0  1.1 0.41 0  0.1 0.2 0  0.45 0.1 0  0.45 0.3 0  0.55 0 0  0.275 0.1 0  0.275 0.3 0  0.275 0 0  0.55 0.41 0  0 0.205 0  0.825 0 0  0.825 0.41 0  0.275 0.41 0  0.1 0.15 0  0.1875 0.1 0  0.1 0.25 0  0.1875 0.3 0  0.132322 0.2 0  0.241426 0.253518 0  0.241426 0.146482 0  0.264574 0.17974 0  0.264574 0.22026 0  0.138434 0.187348 0  0.153372 0.150948 0  0.148413 0.164094 0  0.176495 0.136535 0  0.22768 0.143571 0  0.138434 0.212652 0  0.148413 0.235906 0  0.176495 0.263465 0  0.22768 0.256429 0  0.23125 0.3 0  0.24769 0.24094 0  0.23125 0.1 0  0.24769 0.15906 0  0.26253 0.193641 0  0.190482 0.137872 0  0.166753 0.146661 0  0.157737 0.244461 0  0.190482 0.262128 0  0.203107 0.261264 0  0.253635 0.22977 0  0.203107 0.138736 0  0.253635 0.17023 0  0.261028 0.206206 0  0.167707 0.251809 0  0.143629 0.224191 0  0.215302 0.2591 0  0.270465 0.245894 0  0.215302 0.1409 0  0.270465 0.154106 0  0.284052 0.202587 0  0.14375 0.3 0  0.209375 0.3 0  0.225966 0.278501 0  0.209375 0.1 0  0.225966 0.121499 0  0.211613 0.273759 0  0.211613 0.126241 0  0.143629 0.175809 0  0.1 0.175 0  0.133484 0.164832 0  0.144491 0.249539 0  0.1 0.225 0  0.133484 0.235168 0  0.3625 0.3 0  0.25691 0.253381 0  0.25691 0.146619 0  0.277205 0.188698 0  0.184724 0.275712 0  0.237372 0.268285 0  0.184724 0.124288 0  0.237372 0.131715 0  0.197578 0.273149 0  0.193656 0.286994 0  0.197578 0.126851 0  0.193656 0.113006 0  0.122953 0.187671 0  0.118362 0.153758 0  0.155372 0.258107 0  0.122953 0.212329 0  0.118362 0.246242 0  0.276394 0.27264 0  0.276394 0.12736 0  0.280965 0.170013 0  0.253125 0.3 0  0.14375 0.1 0  0.253125 0.1 0  0.269489 0.26014 0  0.269489 0.13986 0  0.303639 0.184297 0  0.165625 0.3 0  0.134742 0.273113 0  0.257831 0.274737 0  0.255279 0.128499 0  0.3625 0.1 0  0.165625 0.1 0  0.162031 0.132368 0  0.134955 0.126405 0  0.149334 0.125568 0  0.142936 0.139597 0  0.12695 0.140259 0  0.242514 0.285501 0  0.242514 0.114499 0  0.1 0.125 0  0.117483 0.12555 0  0.11154 0.139776 0  0.121875 0.1 0  0.109143 0.1125 0  0.126805 0.114 0  0.220313 0.29129 0  0.351562 0.287369 0  0.207222 0.2866 0  0.220312 0.10871 0  0.1375 0 0  0.20625 0 0  0.207222 0.1134 0  0.11722 0.17118 0  0.1 0.1625 0  0.0778409 0.16875 0  0.0862762 0.15625 0  0 0.15375 0  0 0.1025 0  0.11722 0.22882 0  0.1 0.2375 0  0 0.3075 0  0.0862762 0.23125 0  0.0598995 0.222547 0  0.0860223 0.2125 0  0.289584 0.181469 0  0.300267 0.16446 0  0.163832 0.269071 0  0.149597 0.273325 0  0.1 0.275 0  0.268498 0.285953 0  0.31875 0.3 0  0.294154 0.254672 0  0.296875 0.3 0  0.293558 0.271845 0  0.285095 0.286799 0  0.324298 0.264316 0  0.307866 0.263745 0  0.317093 0.234901 0  0.315485 0.281219 0  0.316547 0.250625 0  0.344693 0.243731 0  0.331592 0.251147 0  0.35129 0.270663 0  0.338689 0.263683 0  0.340625 0.3 0  0.249849 0.264383 0  0.265097 0.11422 0  0.284688 0.156136 0  0.242188 0.324017 0  0.0856613 0.2625 0  0.132812 0.0612217 0  0.264062 0.0612217 0  0.198437 0.07598340000000001 0  0.0860223 0.1375 0  0.0794526 0.191089 0  0.285228 0.140397 0  0.298655 0.148737 0  0.31875 0.1 0  0.327335 0.15374 0  0.296875 0.1 0  0.312289 0.155283 0  0.313348 0.135607 0  0.321802 0.173916 0  0.298433 0.134116 0  0.112124 0.2625 0  0.127526 0.259083 0  0.121875 0.3 0  0.0682687 0.241503 0  0.1 0.2875 0  0.117762 0.28125 0  0.107813 0.3 0  0.103906 0.313849 0  0.0778409 0.28125 0  0.1375 0.41 0  0.0862762 0.29375 0  0.08886860000000001 0.24375 0  0.307812 0.338778 0  0.307812 0.292227 0  0.33216 0.279164 0  0.387888 0.266414 0  0.264063 0.31948 0  0.110937 0.07598340000000001 0  0.242188 0.07598340000000001 0  0.319914 0.11839 0  0.340625 0.1 0  0.334448 0.133793 0  0.329687 0.108539 0  0.346259 0.118491 0  0.360334 0.173636 0  0.327539 0.205033 0  0.132812 0.288712 0  0.362436 0.278836 0  0.368105 0.259418 0  0.4125 0.41 0  0.329687 0.324017 0  0.329687 0.292306 0  0.285938 0.318952 0  0.417187 0.338778 0  0.324481 0.14148 0  0.351562 0.106771 0  0.40625 0.1 0  0.341028 0.168342 0  0.319221 0.190479 0  0.335292 0.184501 0  0.305563 0.20794 0  0.220313 0.31948 0  0.132812 0.332772 0  0.0865876 0.311259 0  0.0598995 0.302453 0  0.0906541 0.343255 0  0.353543 0.255837 0  0.36574 0.237633 0  0.405007 0.254279 0  0.275795 0.352123 0  0.4125 0 0  0.35493 0.137394 0  0.366563 0.120618 0  0.35917 0.205246 0  0.198438 0.318952 0  0.0626109 0.263892 0  0.40625 0.3 0  0.354809 0.155936 0  0.386512 0.146872 0  0.373101 0.159939 0  0.384375 0.1 0  0.343394 0.19929 0  0.350682 0.185683 0  0.368101 0.189748 0  0.344016 0.221511 0  0.391108 0.213329 0  0.376279 0.204783 0  0.398843 0.182768 0  0.375804 0.222746 0  0.390665 0.196958 0  0.394004 0.23518 0  0.359883 0.222828 0  0.419908 0.204359 0  0.404243 0.204783 0  0.412615 0.224526 0  0.20625 0.41 0  0.165625 0.325257 0  0.0347982 0.244954 0  0.379558 0.247154 0  0.34165 0.147603 0  0.372264 0.136992 0  0.388988 0.121989 0  0.373437 0.108554 0  0.351562 0.31948 0  0.391367 0.16527 0  0.399572 0.223324 0  0.452011 0.227371 0  0.40877 0.239392 0  0.431491 0.237337 0  0.421224 0.250459 0  0.449619 0.262098 0  0.418865 0.276779 0  0.437063 0.252274 0  0.415673 0.263227 0  0.430988 0.266772 0  0.402767 0.273419 0  0.452967 0.244883 0  0.428125 0.3 0  0.408502 0.286186 0  0.384375 0.3 0  0.392267 0.285807 0  0.465927 0.219339 0  0.43489 0.283846 0  0.376424 0.286289 0  0.625 0.3 0  0.473533 0.205186 0  0.461713 0.255517 0  0.5375 0.3 0  0.465725 0.235405 0  0.44631 0.201425 0  0.471875 0.3 0  0.494307 0.227729 0  0.459448 0.206736 0  0.462294 0.180792 0  0.478933 0.227536 0  0.486793 0.21381 0  0.486322 0.251373 0  0.50065 0.215318 0  0.54005 0.175389 0  0.474633 0.189893 0  0.512916 0.208697 0  0.49531 0.199967 0  0.475889 0.175275 0  0.625 0.1 0  0.459311 0.153933 0  0.513645 0.242704 0  0.392892 0.248539 0  0.374815 0.271913 0  0.365974 0.14871 0  0.395312 0.109184 0  0.417061 0.123981 0  0.483196 0.277003 0  0.381967 0.179632 0  0.429898 0.219374 0  0.433473 0.206165 0  0.43149 0.181038 0  0.444208 0.215487 0  0.472985 0.247309 0  0.49375 0.3 0  0.475579 0.262714 0  0.49916 0.274293 0  0.501175 0.184809 0  0.514164 0.225681 0  0.543648 0.214977 0  0.5341630000000001 0.23481 0  0.527396 0.216171 0  0.5375 0.1 0  0.534548 0.202315 0  0.561545 0.192513 0  0.5494289999999999 0.201221 0  0.570923 0.218346 0  0.412582 0.149833 0  0.489327 0.264745 0  0.502439 0.254775 0  0.462391 0.271166 0  0.496775 0.241732 0  0.5294410000000001 0.268606 0  0.482812 0.291099 0  0.46879 0.285038 0  0.452663 0.284065 0  0.51789 0.257882 0  0.53408 0.252026 0  0.560142 0.243543 0  0.545708 0.243474 0  0.547532 0.229019 0  0.55282 0.265323 0  0.398971 0.153424 0  0.400349 0.135684 0  0.410135 0.168145 0  0.428823 0.161323 0  0.415266 0.183779 0  0.329687 0.0810483 0  0.395312 0.0612217 0  0.373437 0.318952 0  0.439062 0.324017 0  0.561816 0.229354 0  0.585029 0.239287 0  0.431827 0.139854 0  0.446796 0.168929 0  0.351562 0.07598340000000001 0  0.395313 0.318944 0  0.54337 0.150762 0  0.460937 0.31948 0  0.418412 0.137529 0  0.428125 0.1 0  0.442783 0.152332 0  0.450742 0.134294 0  0.373437 0.0805201 0  0.384383 0.342558 0  0.482812 0.318952 0  0.429239 0.127457 0  0.444274 0.117405 0  0.426548 0.113815 0  0.49375 0.1 0  0.488954 0.113984 0  0.457973 0.121842 0  0.471621 0.137346 0  0.515625 0.325257 0  0.48125 0.41 0  0.417187 0.07598340000000001 0  0.496363 0.126778 0  0.479043 0.155715 0  0.439062 0.0805201 0  0.481795 0.126919 0  0.471875 0.1 0  0.489227 0.142159 0  0.515625 0.1 0  0.520062 0.147117 0  0.501244 0.161791 0  0.505431 0.112984 0  0.505344 0.14029 0  0.526563 0.119081 0  0.5181750000000001 0.131908 0  0.539868 0.136937 0  0.460937 0.108383 0  0.474242 0.114415 0  0.460937 0.0810483 0  0.487841 0.167168 0  0.526563 0.0612217 0  0.526563 0.106406 0  0.537619 0.112743 0  0.58125 0.1 0  0.559375 0.1 0  0.482812 0.08105569999999999 0  0.471883 0.0587655 0  0.570312 0.129396 0  0.548437 0.07598340000000001 0  0.504687 0.08105569999999999 0  0.49375 0.0470127 0  0.570312 0.112663 0  0.592798 0.12103 0  0.553986 0.12103 0  0.570312 0.0805201 0  0.48125 0 0  0.114787 0.2 0  0.160769 0.284765 0  0.175816 0.288361 0  0.162602 0.116048 0  0.154687 0.07598340000000001 0  0.176562 0.0805201 0  0.0598995 0.147547 0  0.307812 0.109924 0  0.291279 0.117157 0  0.278491 0.112989 0  0.285937 0.07598340000000001 0  0.307812 0.0805201 0  0.296928 0.196743 0  0.318141 0.218507 0  0.330208 0.227509 0  0.301397 0.225668 0  0.302706 0.241401 0  0.292574 0.21424 0  0.282762 0.230935 0  0.284351 0.244775 0  0.269553 0.23261 0  0.278572 0.217242 0  0.226924 0.342606 0  0.446928 0.185396 0  0.515625 0.3 0  0.504687 0.288879 0  0.515256 0.276534 0  0.529479 0.285328 0  0.58125 0.3 0  0.541969 0.272936 0  0.559375 0.3 0  0.556796 0.282529 0  0.543473 0.287206 0  0.581429 0.267774 0  0.566728 0.271171 0  0.570869 0.255585 0  0.577404 0.283865 0  0.603125 0.3 0  0.597531 0.28035 0  0.570312 0.338778 0  0.592188 0.292492 0  0.603513 0.256094 0  0.614063 0.286265 0  0.610329 0.27064 0  0.632708 0.251285 0  0.657223 0.261594 0  0.618789 0.257807 0  0.614188 0.22987 0  0.630935 0.265614 
[...]
<PointData  Vectors="v"> 
	<DataArray  type="Float64"  Name="v"  NumberOfComponents="3" format="ascii">
0.0 0.0 0.0 0.0 0.0 0.0 0.0 0.0 0.0 0.0 0.0 0.0 0.7962534801608986 -0.19601602188210118 0.0 0.8403842876229151 0.20773140334239268 0.0 1.1652663081803987 -0.057090968935803656 0.0 1.1397474075282954 0.05821701120445924 0.0 0.0 0.0 0.0 0.0 0.0 0.0 0.0 0.0 0.0 0.0 0.0 0.0 0.0008754065044563889 0.000827346456499271 0.0 0.0009485104249467834 0.001507116224081876 0.0 0.0006662223425118715 0.0011658656574347137 0.0 0.0 0.0 0.0 0.0 0.0 0.0 0.0 0.0 0.0 0.0 0.0 0.0 0.0 0.0 0.0 0.0 0.0 0.0 0.0 0.0 0.0 0.0 0.0 0.0 0.0 0.0 0.0 0.0 0.0 0.0 0.0 0.0 0.0 0.0 0.0 0.0 0.0 0.0 0.0 0.0 0.0 0.0 0.0 0.0 0.0 0.0 0.0 0.0 0.0 0.0 0.0 0.0 0.0 0.0 0.00020855736278458883 -0.0003648093401871686 0.0 -0.0006301746127253612 0.001227010094943998 0.0 0.0008196993317425443 -0.0007434966185757298 0.0 0.0 0.0 0.0 0.0 0.0 0.0 0.0 0.0 0.0 0.0 0.0 0.0 0.0 0.0 0.0 0.7613287563516631 -0.0013565343176821113 0.0 1.2753753792498408 0.08305074198676418 0.0 1.2664408078966687 -0.07733394395409113 0.0 0.0 0.0 0.0 1.353634611038317 -0.13289565715375598 0.0 1.3581478668961275 0.15496955103747986 0.0 0.0 0.0 0.0 0.0 0.0 0.0 1.0 0.0 0.0 0.0 0.0 0.0 0.0 0.0 0.0 0.0 0.0 0.0 0.842615759518374 -0.23194672264339267 0.0 1.151461927502877 -0.34430508609741584 0.0 0.8637614446184733 0.2292459077936692 0.0 1.1662225678494438 0.35410847566633785 0.0 0.42823509281540795 -0.0040532524600909395 0.0 0.1652866885949384 0.062439325214395935 0.0 0.16952495546482077 -0.060775862363604445 0.0 -0.0275140434877583 -0.038507045659571144 0.0 -0.026101289371309 0.036369510731813506 0.0 0.3343941871537809 -0.2799339664579231 0.0 0.8579467436582073 -0.673520113686021 0.0 0.6400398519689603 -0.6882300274604567 0.0 1.2062235796367735 -0.6133289071875567 0.0 0.41600611583170866 -0.068607906703318 0.0 0.33043111008501297 0.26865672044682887 0.0 0.642788788211249 0.6692475356363587 0.0 1.185080460559126 0.6153528615526291 0.0 0.407847218862996 0.0718206042676856 0.0 1.3131877089896227 0.260984604132294 0.0 0.32560834243074 0.25338859098373195 0.0 1.3026749353469658 -0.2404055983586932 0.0 0.3150863338387863 -0.24023433686109832 0.0 -0.033572927189070706 -0.017075975977138568 0.0 1.1249948273099197 -0.39878684960843236 0.0 1.0932809108356416 -0.7243946898222332 0.0 0.8519978565818304 0.7706787876935557 0.0 1.1312850113462811 0.39952594554716203 0.0 0.7593150403129244 0.18595807190499175 0.0 0.1090975488612131 0.05172677968467467 0.0 0.7694397285016857 -0.18197165182074906 0.0 0.11133436129253137 -0.05002101954997057 0.0 -0.02968081214459086 0.019102806808776202 0.0 1.0274428330753498 0.7188315092552542 0.0 0.44234525807733416 0.5291090846399885 0.0 0.4577675151081595 0.17773069825548 0.0 0.27285787097833447 0.06932783409272499 0.0 0.46448347866229295 -0.17373550890162906 0.0 0.27755910943014067 -0.06476046796249334 0.0 -0.07533950703361425 0.0022274989275357154 0.0 0.9654366446150997 0.31739138007933104 0.0 1.2604942862962574 0.31324758600920793 0.0 1.244940909692402 0.2888993985145225 0.0 1.2348970537521085 -0.3075971973743464 0.0 1.2480521094336083 -0.28095375471985473 0.0 1.22001301447497 0.3310351777280468 0.0 1.226328206306695 -0.3226499254054182 0.0 0.44292580604747417 -0.5446593366788964 0.0 0.8020294114666348 -0.1396986318352645 0.0 0.6715424900991288 -0.41977640060936355 0.0 0.8773190919304764 0.5937848265720291 0.0 0.7992926291609892 0.1427359603952014 0.0 0.6764590402067338 0.42007280757185617 0.0 1.2927875158779607 -0.007160539320115112 0.0 0.29390705469196327 0.14502901668070842 0.0 0.2949695382129185 -0.13462058107551214 0.0 -0.054454102407591916 -0.013042188578531582 0.0 1.2649934267605538 0.4718188219910405 0.0 0.768642407349306 0.12096943054832746 0.0 1.2611998738455563 -0.4732881586245775 0.0 0.7891898951935533 -0.11533273879460859 0.0 1.2755005282400969 0.41807054110677755 0.0 1.2539280523136944 0.40115375094281164 0.0 1.27169478995415 -0.4142406518923374 0.0 1.2447773857794133 -0.38109248360402587 0.0 0.5835410425101556 -0.16060844953187411 0.0 0.7964612857729616 -0.33187302541333036 0.0 1.0103736275628725 0.6037581037777926 0.0 0.5917370890258901 0.15052772507476697 0.0 0.8125339491171605 0.3316403517397492 0.0 0.7457140485218073 0.08100572026342706 0.0 0.7828336940643371 -0.07298723589713545 0.0 0.05241655507791623 -0.02218626475953747 0.0 1.3634331176503456 0.20756855416152592 0.0 0.9298629444638205 -0.3222444639714669 0.0 1.3445565351551094 -0.18992476383635493 0.0 0.4097135767676069 0.09127773593793105 0.0 0.4274066740194156 -0.07829486647123875 0.0 -0.054616942767352766 -0.008146502653606716 0.0 1.0573110233585326 0.35400072962229984 0.0 0.9431188138741284 0.3914353005680151 0.0 0.9220893074668411 0.11247341465714822 0.0 0.8243610013778907 -0.08682704419163827 0.0 1.306821106235586 0.016734270113728394 0.0 1.0275605953285127 -0.34519265770932367 0.0 1.0745505096883203 -0.5703561535202462 0.0 0.9301740773634257 -0.389432712239741 0.0 0.9975168606660729 -0.4386786618929792 0.0 0.9329786306849049 -0.5428780605500095 0.0 0.8655664502554747 -0.4065526297269658 0.0 1.273238364220633 0.23298416789295673 0.0 1.2716245761465332 -0.2194717407721265 0.0 0.8526777515468753 -0.23567438410787833 0.0 0.8790810530999796 -0.3099951380310545 0.0 0.8529223072957797 -0.29909642063120934 0.0 0.8514397585998731 -0.2564270441641828 0.0 0.8542380620546862 -0.25281539334215053 0.0 0.8963080870239167 -0.3194989311781875 0.0 1.3291549381390906 0.3156802359468889 0.0 1.0845779918485485 -0.0023624626310617893 0.0 1.3145051762178612 0.3624087495041302 0.0 1.3214232494683198 -0.295955481631413 0.0 0.0 0.0 0.0 0.0 0.0 0.0 1.2995297879150332 -0.3494114806448578 0.0 0.714261984541751 -0.2673877246821566 0.0 0.8204081949827388 -0.2108254138522537 0.0 0.8711788110963687 -0.11080900849908651 0.0 0.8624535136544941 -0.1638207728130104 0.0 0.9375 0.0 0.0 0.7500000000000001 0.0 0.0 0.7224562825981307 0.2652362920123631 0.0 0.8240215100987056 0.20008578001943408 0.0 0.7499999999999999 0.0 0.0 0.8697070764571275 0.12776694807931815 0.0 0.9287086433535314 0.04279430686332596 0.0 0.8481085961218755 0.045008906897150015 0.0 -0.03489941547577103 -0.01165295621070215 0.0 0.09178323228521822 -0.017570012625920492 0.0 1.1149575409135253 0.5547547982605925 0.0 1.0189650039431102 0.4731178685508842 0.0 0.8809512517968442 0.2454324836389672 0.0 1.1999207046938762 0.13917424966616707 0.0 1.3288467410368625 0.05991055759894654 0.0 0.35293091501911156 0.03812080246107697 0.0 1.3561309703828077 0.10299585874818812 0.0 0.714055312471858 0.0539434875176101 0.0 1.1710359227416294 0.10036153089827674 0.0 0.5149751100180238 0.015953213851939093 0.0 0.4966282288472552 0.030166603735767888 0.0 0.07012835580558216 0.013313989417645345 0.0 0.9565932564066002 0.034643765512628204 0.0 0.2576587588891221 0.022191044568771554 0.0 0.16364521294618567 0.008500577181169826 0.0 0.2681422223558541 0.014648066908171883 0.0 0.6668376146855061 -0.0047211965906784675 0.0 0.49865967156076074 0.007101677920362575 0.0 1.3157761680069706 0.019363554634545765 0.0 0.5423499293910387 0.06213508447686423 0.0 1.2303608175012122 -0.14191820246467246 0.0 0.20246311533332664 -0.037640580067541916 0.0 1.2057884342912382 0.17364300197982738 0.0 0.8828100286904565 0.1796994639827295 0.0 0.7011497276600229 -0.16796285539588357 0.0 1.1155232942610498 -0.09415968280615496 0.0 1.0385742299022769 -0.22371671859080805 0.0 0.8637660566680326 -0.1826958209875163 0.0 0.8754210332677071 -0.025649994135612805 0.0 0.4398819138453996 -0.04808805367537164 0.0 0.2910020037514633 -0.03305609430449044 0.0 1.328996882994166 -0.04180071012721835 0.0 0.20899667030801772 -0.013393338432940202 0.0 1.3554529394648795 -0.08626541446547237 0.0 0.19197648014750066 -0.019013362922210442 0.0 0.5360345574110057 -0.015623828708758971 0.0 -0.0014244553374639078 -0.011162198838855919 0.0 0.572633654142533 -0.03141742942644161 0.0 0.8788654960606926 0.2971118286534011 0.0 0.8795276380938557 0.41072444913692713 0.0 0.8850650462931039 0.27031048040470756 0.0 0.9122122595350595 0.10980666721579943 0.0 0.8651587585229131 0.22326327951046374 0.0 0.9046987721640471 0.30368497731133726 0.0 0.857214009240303 0.23349334780337153 0.0 0.8020059551355134 0.18335998186445762 0.0 0.8670416690227492 0.16149743593430638 0.0 0.0 0.0 0.0 0.8415033736111504 0.17666450087809477 0.0 0.8706432153888753 0.17097553655346842 0.0 1.2131881756162637 0.04981465899929842 0.0 1.2375255636059932 0.06506401896609029 0.0 0.8902809725579668 0.013325193901571579 0.0 0.5942658058693449 -0.0259127602892823 0.0 1.2798816988136104 0.14719398788861437 0.0 0.717638451961946 -0.17374360887451923 0.0 1.1779866535135135 -0.1644633533221228 0.0 0.998880919803586 -0.019717046343255235 0.0 1.3235930005132521 -0.007636040383296301 0.0 0.5859392696548401 -2.6574772444053514e-05 0.0 1.2205809933827638 -0.012517696075958668 0.0 0.9837215758329964 0.009323611392251858 0.0 -0.004332917314149151 -0.006947202205349458 0.0 -0.0962999101465633 0.001055925340233922 0.0 0.944822086372096 0.34120167698664067 0.0 0.8778898716784393 -0.018357522475695137 0.0 0.427777640859123 -0.008127917308383277 0.0 0.0 0.0 0.0 1.328755585109068 0.0375454713091707 0.0 1.2125822067328889 0.025029962391841423 0.0 1.317293896484051 0.11469671689362888 0.0 1.2525401693299107 -0.044338636225263496 0.0 0.41406643430650686 -0.013712816351069499 0.0 1.2284139690592162 0.010603561432340302 0.0 1.2911158493695747 0.056988044138009154 0.0 0.0412946810540448 -0.009736342632119819 0.0 -0.08263178316783204 -0.005186791295509595 0.0 -0.06767975502832338 -0.007470508264360516 0.0 -0.08137830622354884 0.002883537168967419 0.0 1.1857728953307618 0.21977572932280326 0.0 0.7774221478185718 0.19846273786430743 0.0 0.7778996439986451 0.15420436386724737 0.0 0.7857295111950676 0.10688092106251451 0.0 0.6205589385833429 0.11096310691164299 0.0 0.3532949256422712 0.0014843738020813228 0.0 0.0934513395616964 0.0038408799867838527 0.0 0.3649229204481718 -0.020560626368240225 0.0 1.0720026743405255 0.07677898665413384 0.0 0.0 0.0 0.0 0.5203324249202042 0.011512726094209128 0.0 0.9321290597466355 0.029317269257213945 0.0 -0.10946774204510273 0.0005331109465855243 0.0 1.0969688225068885 0.2670558952403646 0.0 0.9003260882627936 0.11235933289501097 0.0 1.2804312166054994 -0.049521081044116885 0.0 0.18717937239438207 -0.0035679260749045616 0.0 0.35927951174663086 0.017940267434594422 0.0 0.14345356064424594 0.0002472848217368728 0.0 1.302926754214678 0.039361275845984645 0.0 -0.10622681033107546 -0.0016362776310068583 0.0 -0.07751504273650539 -0.0065198803855924595 0.0 -0.09776118122822856 -0.0045513404756064545 0.0 -0.04355335246429677 0.006906642036563306 0.0 -0.09555872013390442 0.0010357216778218018 0.0 -0.11590401267642347 1.232517711117088e-05 0.0 -0.06673294733786017 -0.0019393527903387746 0.0 -0.041399784967293796 0.0033844329609193985 0.0 -0.11968035732900072 -0.002004746361242304 0.0 0.07528737491044728 -0.002025435031232468 0.0 -0.03884250929661156 0.005591196063363949 0.0 -0.12303193020811384 -0.0009461680924241628 0.0 -0.12174426853354652 -0.0006722615493417907 0.0 -0.023760281889591995 -0.0023789020936848255 0.0 0.0 0.0 0.0 0.9463771948402468 0.2554577579823037 0.0 0.9513512068356974 0.040078083019723654 0.0 0.22494616654736638 -0.00443066566217473 0.0 0.3091328280278578 -0.004414973500953047 0.0 0.5447611487880477 0.02105426361044591 0.0 0.9125489706605435 0.0431247882498843 0.0 1.1921431532497577 0.034662606537852844 0.0 1.3538110775055603 0.014675887253124685 0.0 0.0883636142083931 0.0023368106780477247 0.0 -0.035925713869681124 8.569123109136537e-05 0.0 0.0227487872705675 -0.011264444010896909 0.0 0.135387227239846 -0.008739069848097256 0.0 0.12556999008495243 -0.013685722771672432 0.0 0.3154668699486195 -0.02323784463850447 0.0 0.575247094629929 -0.05078906841439979 0.0 0.8595227216961806 -0.05243797591101437 0.0 0.36672899828717803 -0.03166465807988432 0.0 0.5552247516796442 -0.035846500280058334 0.0 0.6505253268446306 -0.04774647529294125 0.0 0.7702032990573635 -0.04109276044444336 0.0 0.25915423563060797 -0.02799253073690784 0.0 1.2729476993537268 -0.0646443724361978 0.0 1.0586083798360864 -0.05186002347272689 0.0 1.286599609326405 -0.029114502003115675 0.0 1.049057665981775 -0.03975029517277927 0.0 -0.04267695524805911 -0.008162739797383531 0.0 1.0272008667498993 -0.06698459702159094 0.0 1.060177890065059 -0.030098297576496628 0.0 1.2274854652040355 -0.10438125624007287 0.0 -0.10867648629244034 -0.0013301580418089505 0.0 0.4604375350318243 -0.045397734357970565 0.0 1.2520567310130821 -0.10551095725974936 0.0 0.13169240015950745 -0.02126676146995542 0.0 -0.12197715792484687 -0.0003758568677310825 0.0 1.261798852065378 -0.08728259506730222 0.0 0.06353304705123691 -0.020047315641611527 0.0 -0.11142991960495585 -0.0018871474637057676 0.0 -0.026322095117408267 0.010709998938109252 0.0 0.04589648766367814 -0.016889600403954635 0.0 -0.0674654727961471 -0.006957490354658846 0.0 0.418780179737587 -0.04842558095906868 0.0 -0.04729856023812616 -0.009472298824407525 0.0 0.11132410515745106 0.03170188918900059 0.0 -0.08243234754634929 0.006617173142221211 0.0 -0.07255143462782916 -0.0047608652194766525 0.0 -0.09945960486035321 0.0019570009509214193 0.0 0.03929884533791807 0.018065337615613603 0.0 1.2149944299605007 0.10142028850598361 0.0 0.3276898584599153 0.03789611886433029 0.0 0.30513765090495243 -0.04375457336926562 0.0 0.2557863769645297 -0.010206737152443322 0.0 0.7081835458502259 -0.020601075488895965 0.0 0.3066252338001325 0.005704065267201219 0.0 1.176675156828226 0.053087124187771235 0.0 0.8890868441383066 0.061154023822485304 0.0 0.9294395342004989 -0.08250120645550847 0.0 -0.04768985311324333 -0.004114647623484639 0.0 -0.05881949367482775 -0.0035057650269641116 0.0 -0.11902834567830849 -0.0012220873315804672 0.0 -0.04567317052594558 0.004385141201531791 0.0 -0.07951797096938455 -0.0038618401912789728 0.0 0.32598249661133366 -0.03810049278928342 0.0 1.2586213464739375 -0.09338107931184865 0.0 0.6262365213012373 -0.06128242660891806 0.0 0.8940310319934468 -0.08548341499855483 0.0 -0.02917976789789872 0.014155623629778775 0.0 0.06140423216398115 -0.021608347471036706 0.0 -0.006830423483488828 -0.013265032975327901 0.0 0.20924217082111407 -0.03736061848667483 0.0 -0.015915088568679094 -0.012937057373393807 0.0 1.2523446889429346 0.10604149913143021 0.0 -0.0667086491959469 0.0007237054085048871 0.0 -0.015381867554204103 0.012470116348966932 0.0 -0.05139027756624755 0.001923373783292213 0.0 0.05569226128172948 -0.020246349884487095 0.0 0.3375467551659691 0.02478970874769666 0.0 0.6882750804627351 -0.0696287016821611 0.0 0.5076890065381705 -0.05912308068654676 0.0 0.7870034389687063 -0.06810228582393889 0.0 0.2649013801428316 -0.037570183556690694 0.0 0.8199654684087434 -0.08711472084280596 0.0 1.1667416804986044 -0.0908389347272646 0.0 1.0676818677968254 -0.08345346174677631 0.0 1.040852205068284 -0.07501949775273523 0.0 0.5926095301760768 -0.06875116827220648 0.0 0.5044378790485242 -0.06364650470537682 0.0 0.392349374317611 -0.056455197356298364 0.0 0.3673676131006941 -0.053009442043032436 0.0 0.14534001045489722 -0.03157404245844022 0.0 0.788043328495572 -0.0878048453895427 0.0 0.25995621700552507 0.014851107187891078 0.0 0.607088421589557 0.03797962612433772 0.0 0.06709871858379969 0.006168392697289993 0.0 0.17166602462688604 0.018065070289632897 0.0 -0.07035305153932693 0.0004570054628995832 0.0 1.3326260533067058 -0.024336532613165433 0.0 1.217747539341467 0.04118993094974196 0.0 1.3552635038782017 -0.012044616648351488 0.0 1.326856954897027 -0.06313786635147223 0.0 0.17045929605592924 -0.03456166175405788 0.0 0.3592512955652141 -0.05405300262974924 0.0 0.5589284953446372 0.04701246690289801 0.0 0.08716310212508618 0.015973806027920336 0.0 1.3080976083325218 0.0041350466596082255 0.0 1.3483379556763613 -0.0329602261182093 0.0 0.5160626530162541 0.06936333740863862 0.0 1.3273018507389716 -0.0765969557748111 0.0 0.5888640932032982 0.043462036391117786 0.0 1.282301718972229 0.07207378582592397 0.0 0.33286558441829917 0.0339252638456439 0.0 0.7041343039527179 0.0640843656544043 0.0 1.33457976378471 0.02421727377150537 0.0 1.2313521538269208 -0.02418858803438093 0.0 1.3180579207950165 -0.08661502778503427 0.0 0.8250138987163316 0.06156860309536035 0.0 1.0476728670961624 0.07917925961400085 0.0 1.1069171296072817 0.0725167811352167 0.0 1.2662194046155812 0.0987197242585438 0.0 1.1280250347957301 0.09761800139703432 0.0 0.9746759852674606 0.08156045885082884 0.0 0.6686488478218543 0.06778103366233806 0.0 1.273803721521405 -0.08996472290615895 0.0 0.0 0.0 0.0 1.3077487351942385 0.05789768978679124 0.0 0.9163794960788026 0.09001918705652685 0.0 0.32510761327592747 0.04264435433428404 0.0 1.3156557151148203 0.0717349107352695 0.0 0.8990077963800852 0.08576511761661715 0.0 1.2703048430542714 0.09149147638440215 0.0 0.5977902723328211 0.06684754693702315 0.0 1.2610516798811497 0.10371827407207002 0.0 0.5481919223086943 0.0689508766723318 0.0 0.255327679170009 0.04121466822644829 0.0 1.1458447322167342 0.10188257828049582 0.0 0.6607487652048019 0.07540514669047059 0.0 1.071257398063459 0.10365627533436897 0.0 0.8436275261732838 0.09102916972490366 0.0 0.7741713437427381 0.0891556799754686 0.0 1.1953213458486271 0.0889454687442106 0.0 1.115704599561083 0.09216285874007377 0.0 1.305892148533661 0.08202364662565072 0.0 0.15541434439042812 0.02973737555822171 0.0 1.1516774348294772 0.07898357075714854 0.0 1.2153925643036076 0.10662310845970714 0.0 1.1559997625046585 0.10755493695562175 0.0 1.2321852470931831 0.10647254643060444 0.0 1.2423503478286666 0.10788605212434584 0.0 1.2907317019928362 0.08718783244497336 0.0 1.1828787203665028 0.06849093379760862 0.0 0.9426946811938071 0.10120708547406859 0.0 1.2285306096276074 0.09224613047638873 0.0 1.278450448081592 0.09073630406982519 0.0 1.0447373210577755 0.06527066684410938 0.0 1.1605248725672994 0.10910021167321031 0.0 1.0767444027038624 0.1071922373862816 0.0 1.0579119364061216 0.1061134871435802 0.0 1.2315340770954954 0.09628254377377199 0.0 0.0 0.0 0.0 0.6445059007262773 -0.005662831437874457 0.0 1.0777793483828721 0.43422196411806724 0.0 1.166837572503772 0.4222477791979886 0.0 1.0823161480314951 -0.42679399357984266 0.0 0.8656430010998934 -0.22702331730025627 0.0 0.9789360862927347 -0.2554975657908742 0.0 0.8923755139162358 -0.08503049727831276 0.0 1.2230209407458206 -0.05219229296159679 0.0 1.0817006151683444 -0.06392051964975794 0.0 1.1989244368980856 -0.10436342896542791 0.0 1.2651161287039663 -0.084451763414684 0.0 1.3152681582905272 -0.05360788659468878 0.0 -0.08341269879772761 -0.002623993330906106 0.0 -0.05037746474617155 0.007570438347216004 0.0 0.0009094980042418511 0.009940540227515629 0.0 0.0007767358463302808 0.011878139258303673 0.0 0.14734375203981534 0.026749969830855876 0.0 -0.05728731077940343 0.008073760064590211 0.0 0.06152338699724067 0.021741334652828414 0.0 0.21787390959594466 0.03709017681907579 0.0 0.08529623430516757 0.0381929564332834 0.0 -0.036283022973945256 0.014929855752371086 0.0 1.0348107783840337 0.16081685805993906 0.0 -0.07006516152423437 0.005105089840227397 0.0 1.2555923916587584 -0.10044373724902803 0.0 1.1429410100507462 -0.09793310086953745 0.0 0.9520741886766961 -0.09205444405568199 0.0 1.1055134135597247 -0.10187686028942772 0.0 1.2410185196487542 -0.10699106829599586 0.0 0.9152292361990357 -0.09500965222074788 0.0 1.2485035087433527 -0.10690941103534198 0.0 1.0799855839716095 -0.10486525688980983 0.0 1.1348070070059568 -0.10476521908250648 0.0 0.8671404427523024 -0.09492546337150295 0.0 0.9101966690472868 -0.0971289089585916 0.0 0.6297705803577929 -0.0772607974636421 0.0 1.1067855844359245 -0.10771156013352386 0.0 1.2347736192958567 -0.10707959912959562 0.0 1.0718404886428152 -0.10587161850826489 0.0 1.1683061694804249 -0.08618476243274273 0.0 1.1951476997915846 -0.10917124250795918 0.0 0.6866809507318712 -0.08212012684660197 0.0 1.1434708943985628 -0.10672296307096975 0.0 0.9430287556769007 -0.09