<?xml version="1.0"?>
<VTKFile type="UnstructuredGrid"  version="0.1"  >
<UnstructuredGrid>
<Piece  NumberOfPoints="1289" NumberOfCells="2413">
<Points>
<DataArray  type="Float64"  NumberOfComponents="3"  format="ascii">0 0 0  0 0.41 0  2.2 0.41 0  2.2 0 0  0.1 0.1 0  0.1 0.3 0  0.8 0.3 0  0.8 0.1 0  0.25 0.2 0  0.248976 0.210065 0  0.245948 0.219718 0  0.241038 0.228563 0  0.234448 0.23624 0  0.226448 0.242432 0  0.217365 0.246888 0  0.207571 0.249423 0  0.197468 0.249936 0  0.187467 0.248404 0  0.17798 0.24489 0  0.169395 0.239539 0  0.162062 0.232569 0  0.156283 0.224265 0  0.152293 0.214968 0  0.150257 0.205058 0  0.150257 0.194942 0  0.152293 0.185032 0  0.156283 0.175735 0  0.162062 0.167431 0  0.169395 0.160461 0  0.17798 0.15511 0  0.187467 0.151596 0  0.197468 0.150064 0  0.207571 0.150577 0  0.217365 0.153112 0  0.226448 0.157568 0  0.234448 0.16376 0  0.241038 0.171437 0  0.245948 0.180282 0  0.248976 0.189935 0  1.1 0 0  1.1 0.41 0  0.1 0.2 0  0.45 0.1 0  0.45 0.3 0  0.55 0 0  0.275 0.1 0  0.275 0.3 0  0.275 0 0  0.55 0.41 0  0 0.205 0  0.825 0 0  0.825 0.41 0  0.275 0.41 0  0.1 0.15 0  0.1875 0.1 0  0.1 0.25 0  0.1875 0.3 0  0.132322 0.2 0  0.241426 0.253518 0  0.241426 0.146482 0  0.264574 0.17974 0  0.264574 0.22026 0  0.138434 0.187348 0  0.153372 0.150948 0  0.148413 0.164094 0  0.176495 0.136535 0  0.22768 0.143571 0  0.138434 0.212652 0  0.148413 0.235906 0  0.176495 0.263465 0  0.22768 0.256429 0  0.23125 0.3 0  0.24769 0.24094 0  0.23125 0.1 0  0.24769 0.15906 0  0.26253 0.193641 0  0.190482 0.137872 0  0.166753 0.146661 0  0.157737 0.244461 0  0.190482 0.262128 0  0.203107 0.261264 0  0.253635 0.22977 0  0.203107 0.138736 0  0.253635 0.17023 0  0.261028 0.206206 0  0.167707 0.251809 0  0.143629 0.224191 0  0.215302 0.2591 0  0.270465 0.245894 0  0.215302 0.1409 0  0.270465 0.154106 0  0.284052 0.202587 0  0.14375 0.3 0  0.209375 0.3 0  0.225966 0.278501 0  0.209375 0.1 0  0.225966 0.121499 0  0.211613 0.273759 0  0.211613 0.126241 0  0.143629 0.175809 0  0.1 0.175 0  0.133484 0.164832 0  0.144491 0.249539 0  0.1 0.225 0  0.133484 0.235168 0  0.3625 0.3 0  0.25691 0.253381 0  0.25691 0.146619 0  0.277205 0.188698 0  0.184724 0.275712 0  0.237372 0.268285 0  0.184724 0.124288 0  0.237372 0.131715 0  0.197578 0.273149 0  0.193656 0.286994 0  0.197578 0.126851 0  0.193656 0.113006 0  0.122953 0.187671 0  0.118362 0.153758 0  0.155372 0.258107 0  0.122953 0.212329 0  0.118362 0.246242 0  0.276394 0.27264 0  0.276394 0.12736 0  0.280965 0.170013 0  0.253125 0.3 0  0.14375 0.1 0  0.253125 0.1 0  0.269489 0.26014 0  0.269489 0.13986 0  0.303639 0.184297 0  0.165625 0.3 0  0.134742 0.273113 0  0.257831 0.274737 0  0.255279 0.128499 0  0.3625 0.1 0  0.165625 0.1 0  0.162031 0.132368 0  0.134955 0.126405 0  0.149334 0.125568 0  0.142936 0.139597 0  0.12695 0.140259 0  0.242514 0.285501 0  0.242514 0.114499 0  0.1 0.125 0  0.117483 0.12555 0  0.11154 0.139776 0  0.121875 0.1 0  0.109143 0.1125 0  0.126805 0.114 0  0.220313 0.29129 0  0.351562 0.287369 0  0.207222 0.2866 0  0.220312 0.10871 0  0.1375 0 0  0.20625 0 0  0.207222 0.1134 0  0.11722 0.17118 0  0.1 0.1625 0  0.0778409 0.16875 0  0.0862762 0.15625 0  0 0.15375 0  0 0.1025 0  0.11722 0.22882 0  0.1 0.2375 0  0 0.3075 0  0.0862762 0.23125 0  0.0598995 0.222547 0  0.0860223 0.2125 0  0.289584 0.181469 0  0.300267 0.16446 0  0.163832 0.269071 0  0.149597 0.273325 0  0.1 0.275 0  0.268498 0.285953 0  0.31875 0.3 0  0.294154 0.254672 0  0.296875 0.3 0  0.293558 0.271845 0  0.285095 0.286799 0  0.324298 0.264316 0  0.307866 0.263745 0  0.317093 0.234901 0  0.315485 0.281219 0  0.316547 0.250625 0  0.344693 0.243731 0  0.331592 0.251147 0  0.35129 0.270663 0  0.338689 0.263683 0  0.340625 0.3 0  0.249849 0.264383 0  0.265097 0.11422 0  0.284688 0.156136 0  0.242188 0.324017 0  0.0856613 0.2625 0  0.132812 0.0612217 0  0.264062 0.0612217 0  0.198437 0.07598340000000001 0  0.0860223 0.1375 0  0.0794526 0.191089 0  0.285228 0.140397 0  0.298655 0.148737 0  0.31875 0.1 0  0.327335 0.15374 0  0.296875 0.1 0  0.312289 0.155283 0  0.313348 0.135607 0  0.321802 0.173916 0  0.298433 0.134116 0  0.112124 0.2625 0  0.127526 0.259083 0  0.121875 0.3 0  0.0682687 0.241503 0  0.1 0.2875 0  0.117762 0.28125 0  0.107813 0.3 0  0.103906 0.313849 0  0.0778409 0.28125 0  0.1375 0.41 0  0.0862762 0.29375 0  0.08886860000000001 0.24375 0  0.307812 0.338778 0  0.307812 0.292227 0  0.33216 0.279164 0  0.387888 0.266414 0  0.264063 0.31948 0  0.110937 0.07598340000000001 0  0.242188 0.07598340000000001 0  0.319914 0.11839 0  0.340625 0.1 0  0.334448 0.133793 0  0.329687 0.108539 0  0.346259 0.118491 0  0.360334 0.173636 0  0.327539 0.205033 0  0.132812 0.288712 0  0.362436 0.278836 0  0.368105 0.259418 0  0.4125 0.41 0  0.329687 0.324017 0  0.329687 0.292306 0  0.285938 0.318952 0  0.417187 0.338778 0  0.324481 0.14148 0  0.351562 0.106771 0  0.40625 0.1 0  0.341028 0.168342 0  0.319221 0.190479 0  0.335292 0.184501 0  0.305563 0.20794 0  0.220313 0.31948 0  0.132812 0.332772 0  0.0865876 0.311259 0  0.0598995 0.302453 0  0.0906541 0.343255 0  0.353543 0.255837 0  0.36574 0.237633 0  0.405007 0.254279 0  0.275795 0.352123 0  0.4125 0 0  0.35493 0.137394 0  0.366563 0.120618 0  0.35917 0.205246 0  0.198438 0.318952 0  0.0626109 0.263892 0  0.40625 0.3 0  0.354809 0.155936 0  0.386512 0.146872 0  0.373101 0.159939 0  0.384375 0.1 0  0.343394 0.19929 0  0.350682 0.185683 0  0.368101 0.189748 0  0.344016 0.221511 0  0.391108 0.213329 0  0.376279 0.204783 0  0.398843 0.182768 0  0.375804 0.222746 0  0.390665 0.196958 0  0.394004 0.23518 0  0.359883 0.222828 0  0.419908 0.204359 0  0.404243 0.204783 0  0.412615 0.224526 0  0.20625 0.41 0  0.165625 0.325257 0  0.0347982 0.244954 0  0.379558 0.247154 0  0.34165 0.147603 0  0.372264 0.136992 0  0.388988 0.121989 0  0.373437 0.108554 0  0.351562 0.31948 0  0.391367 0.16527 0  0.399572 0.223324 0  0.452011 0.227371 0  0.40877 0.239392 0  0.431491 0.237337 0  0.421224 0.250459 0  0.449619 0.262098 0  0.418865 0.276779 0  0.437063 0.252274 0  0.415673 0.263227 0  0.430988 0.266772 0  0.402767 0.273419 0  0.452967 0.244883 0  0.428125 0.3 0  0.408502 0.286186 0  0.384375 0.3 0  0.392267 0.285807 0  0.465927 0.219339 0  0.43489 0.283846 0  0.376424 0.286289 0  0.625 0.3 0  0.473533 0.205186 0  0.461713 0.255517 0  0.5375 0.3 0  0.465725 0.235405 0  0.44631 0.201425 0  0.471875 0.3 0  0.494307 0.227729 0  0.459448 0.206736 0  0.462294 0.180792 0  0.478933 0.227536 0  0.486793 0.21381 0  0.486322 0.251373 0  0.50065 0.215318 0  0.54005 0.175389 0  0.474633 0.189893 0  0.512916 0.208697 0  0.49531 0.199967 0  0.475889 0.175275 0  0.625 0.1 0  0.459311 0.153933 0  0.513645 0.242704 0  0.392892 0.248539 0  0.374815 0.271913 0  0.365974 0.14871 0  0.395312 0.109184 0  0.417061 0.123981 0  0.483196 0.277003 0  0.381967 0.179632 0  0.429898 0.219374 0  0.433473 0.206165 0  0.43149 0.181038 0  0.444208 0.215487 0  0.472985 0.247309 0  0.49375 0.3 0  0.475579 0.262714 0  0.49916 0.274293 0  0.501175 0.184809 0  0.514164 0.225681 0  0.543648 0.214977 0  0.5341630000000001 0.23481 0  0.527396 0.216171 0  0.5375 0.1 0  0.534548 0.202315 0  0.561545 0.192513 0  0.5494289999999999 0.201221 0  0.570923 0.218346 0  0.412582 0.149833 0  0.489327 0.264745 0  0.502439 0.254775 0  0.462391 0.271166 0  0.496775 0.241732 0  0.5294410000000001 0.268606 0  0.482812 0.291099 0  0.46879 0.285038 0  0.452663 0.284065 0  0.51789 0.257882 0  0.53408 0.252026 0  0.560142 0.243543 0  0.545708 0.243474 0  0.547532 0.229019 0  0.55282 0.265323 0  0.398971 0.153424 0  0.400349 0.135684 0  0.410135 0.168145 0  0.428823 0.161323 0  0.415266 0.183779 0  0.329687 0.0810483 0  0.395312 0.0612217 0  0.373437 0.318952 0  0.439062 0.324017 0  0.561816 0.229354 0  0.585029 0.239287 0  0.431827 0.139854 0  0.446796 0.168929 0  0.351562 0.07598340000000001 0  0.395313 0.318944 0  0.54337 0.150762 0  0.460937 0.31948 0  0.418412 0.137529 0  0.428125 0.1 0  0.442783 0.152332 0  0.450742 0.134294 0  0.373437 0.0805201 0  0.384383 0.342558 0  0.482812 0.318952 0  0.429239 0.127457 0  0.444274 0.117405 0  0.426548 0.113815 0  0.49375 0.1 0  0.488954 0.113984 0  0.457973 0.121842 0  0.471621 0.137346 0  0.515625 0.325257 0  0.48125 0.41 0  0.417187 0.07598340000000001 0  0.496363 0.126778 0  0.479043 0.155715 0  0.439062 0.0805201 0  0.481795 0.126919 0  0.471875 0.1 0  0.489227 0.142159 0  0.515625 0.1 0  0.520062 0.147117 0  0.501244 0.161791 0  0.505431 0.112984 0  0.505344 0.14029 0  0.526563 0.119081 0  0.5181750000000001 0.131908 0  0.539868 0.136937 0  0.460937 0.108383 0  0.474242 0.114415 0  0.460937 0.0810483 0  0.487841 0.167168 0  0.526563 0.0612217 0  0.526563 0.106406 0  0.537619 0.112743 0  0.58125 0.1 0  0.559375 0.1 0  0.482812 0.08105569999999999 0  0.471883 0.0587655 0  0.570312 0.129396 0  0.548437 0.07598340000000001 0  0.504687 0.08105569999999999 0  0.49375 0.0470127 0  0.570312 0.112663 0  0.592798 0.12103 0  0.553986 0.12103 0  0.570312 0.0805201 0  0.48125 0 0  0.114787 0.2 0  0.160769 0.284765 0  0.175816 0.288361 0  0.162602 0.116048 0  0.154687 0.07598340000000001 0  0.176562 0.0805201 0  0.0598995 0.147547 0  0.307812 0.109924 0  0.291279 0.117157 0  0.278491 0.112989 0  0.285937 0.07598340000000001 0  0.307812 0.0805201 0  0.296928 0.196743 0  0.318141 0.218507 0  0.330208 0.227509 0  0.301397 0.225668 0  0.302706 0.241401 0  0.292574 0.21424 0  0.282762 0.230935 0  0.284351 0.244775 0  0.269553 0.23261 0  0.278572 0.217242 0  0.226924 0.342606 0  0.446928 0.185396 0  0.515625 0.3 0  0.504687 0.288879 0  0.515256 0.276534 0  0.529479 0.285328 0  0.58125 0.3 0  0.541969 0.272936 0  0.559375 0.3 0  0.556796 0.282529 0  0.543473 0.287206 0  0.581429 0.267774 0  0.566728 0.271171 0  0.570869 0.255585 0  0.577404 0.283865 0  0.603125 0.3 0  0.597531 0.28035 0  0.570312 0.338778 0  0.592188 0.292492 0  0.603513 0.256094 0  0.614063 0.286265 0  0.610329 0.27064 0  0.632708 0.251285 0  0.657223 0.261594 0  0.618789 0.257807 0  0.614188 0.22987 0  0.630935 0.265614 
[...]
<PointData  Vectors="v"> 
	<DataArray  type="Float64"  Name="v"  NumberOfComponents="3" format="ascii">
0.0 0.0 0.0 0.0 0.0 0.0 0.0 0.0 0.0 0.0 0.0 0.0 0.7962424663601972 -0.19599764019762728 0.0 0.8403954974724279 0.2077523823497544 0.0 1.1669291406963043 -0.0581762089524229 0.0 1.1380786398658824 0.05701168197828998 0.0 0.0 0.0 0.0 0.0 0.0 0.0 0.0 0.0 0.0 0.0 0.0 0.0 0.000854678402356822 0.0007916719040518745 0.0 9.078923460268293e-05 2.1427310269243783e-05 0.0 0.0004174376090939543 0.0007352236933479252 0.0 0.0 0.0 0.0 0.0 0.0 0.0 0.0 0.0 0.0 0.0 0.0 0.0 0.0 0.0 0.0 0.0 0.0 0.0 0.0 0.0 0.0 0.0 0.0 0.0 0.0 0.0 0.0 0.0 0.0 0.0 0.0 0.0 0.0 0.0 0.0 0.0 0.0 0.0 0.0 0.0 0.0 0.0 0.0 0.0 0.0 0.0 0.0 0.0 0.0 0.0 0.0 0.0 0.0 0.0 0.0005051005268138232 -0.0008782188210375644 0.0 0.0003924382099395942 -0.0005445174105298059 0.0 0.0008427353174761618 -0.0007846480346059597 0.0 0.0 0.0 0.0 0.0 0.0 0.0 0.0 0.0 0.0 0.0 0.0 0.0 0.0 0.0 0.0 0.7613285761350641 -0.0013185109299911387 0.0 1.275314561640691 0.08286005941704637 0.0 1.2665132106918946 -0.07746319314305679 0.0 0.0 0.0 0.0 1.3536305526243062 -0.13295572504032827 0.0 1.3581662164390906 0.15493219613549336 0.0 0.0 0.0 0.0 0.0 0.0 0.0 1.0 0.0 0.0 0.0 0.0 0.0 0.0 0.0 0.0 0.0 0.0 0.0 0.8426051299835855 -0.2319152797213231 0.0 1.1514201176311147 -0.3443013036168793 0.0 0.8637708106312536 0.2292780617776368 0.0 1.1662601680336442 0.3541244975242813 0.0 0.4282352393491358 -0.00400645548105109 0.0 0.1647449519510054 0.06228502549348782 0.0 0.17011822650041059 -0.061035018747304826 0.0 -0.02745319195984597 -0.03840360034165125 0.0 -0.026028630746093927 0.03632791452391887 0.0 0.3343854247977795 -0.27988252544603115 0.0 0.8579186416714332 -0.6734830874442165 0.0 0.6400155159904941 -0.688185305601694 0.0 1.2061854478326686 -0.6133027937749305 0.0 0.4153775523522377 -0.06904920688734378 0.0 0.3304395964945429 0.26870806401671526 0.0 0.6428102725517546 0.6692918839207734 0.0 1.1851076361773187 0.6153805267835759 0.0 0.40830802273684313 0.07147316812328151 0.0 1.313232667687124 0.26094340697025054 0.0 0.32484450632152423 0.2531110027476377 0.0 1.302634973874852 -0.2404802038828285 0.0 0.3147439435924237 -0.23965577424415244 0.0 -0.03351382539618804 -0.017009656140017794 0.0 1.1249660591048527 -0.3987653964967769 0.0 1.0932425772289915 -0.7243624753285753 0.0 0.8520251952051136 0.7707163146708224 0.0 1.1312927680573848 0.3995451226640383 0.0 0.7592907954058591 0.1860065432473529 0.0 0.1089627918241945 0.05164361394740298 0.0 0.7694325242826381 -0.18191772227544156 0.0 0.11129120461528777 -0.04990781215065355 0.0 -0.02961320867211783 0.019088886107198878 0.0 1.0274690159791953 0.7188598402250178 0.0 0.44236437066465056 0.5291588088585 0.0 0.45802038693020347 0.17799783090732568 0.0 0.27216844560072495 0.06920853767922294 0.0 0.464145949661832 -0.1734207326608403 0.0 0.2773305086424252 -0.06469967969055129 0.0 -0.07519694704527086 0.002291436542631198 0.0 0.9654590400696319 0.3174131863283188 0.0 1.2605452314607555 0.3132535047785448 0.0 1.2450562182166953 0.2889087679514422 0.0 1.234843770275317 -0.307609239627328 0.0 1.2478935198094252 -0.2809738142294321 0.0 1.2200809545270423 0.33108253245965746 0.0 1.2262201807078204 -0.32261192415763396 0.0 0.44290513859774994 -0.5446086001287028 0.0 0.8020227594902735 -0.1396613718647571 0.0 0.6715250648937087 -0.4197304568699673 0.0 0.8773423894945289 0.5938226921167266 0.0 0.7992987784339209 0.14277328797378636 0.0 0.6764752492945404 0.42011936169867475 0.0 1.2928423610878954 -0.007160012126623638 0.0 0.29353092729070285 0.144839490309849 0.0 0.2949094575123642 -0.1344562020942452 0.0 -0.054360658263376105 -0.012961767765907866 0.0 1.265025035080178 0.4718483324519832 0.0 0.768714187108008 0.12087745289517023 0.0 1.2611574391144225 -0.47326721154150514 0.0 0.7890664921920595 -0.11549630138454993 0.0 1.2755422371286496 0.41811004532939233 0.0 1.2539724767647167 0.4011767734506518 0.0 1.271631803819659 -0.41420872826216193 0.0 1.2447234758155725 -0.38108263779400064 0.0 0.5835336023854208 -0.16056163065777787 0.0 0.7964466275565508 -0.33183568659041496 0.0 1.0104005784273944 0.6037908660428182 0.0 0.5917434610897104 0.15057466915920587 0.0 0.8125470928163436 0.3316785001995461 0.0 0.7457394581976954 0.08095499755803501 0.0 0.7827431499932835 -0.07299016934634087 0.0 0.052367400842820475 -0.02211941460108674 0.0 1.3634790434322686 0.20753444244509217 0.0 0.9298393376597224 -0.3222260519208495 0.0 1.3445280491798746 -0.1899832423678211 0.0 0.4094256533236843 0.09114472650370627 0.0 0.42730988486493865 -0.07824349411238009 0.0 -0.05455601624696283 -0.008082279573343948 0.0 1.0573394341103373 0.3540208368949427 0.0 0.9431386325972285 0.3914651114796776 0.0 0.9221882531058011 0.11240559306253961 0.0 0.8242375826520237 -0.08690843625078593 0.0 1.3067582886016726 0.016708608957428865 0.0 1.0275286884850419 -0.3451801982741865 0.0 1.0745175574861294 -0.570329606878845 0.0 0.9301510628832967 -0.38940548666796176 0.0 0.9974885994427687 -0.4386538125088586 0.0 0.932951855989647 -0.5428445131263613 0.0 0.865547152826957 -0.4065191606657475 0.0 1.2732540018837675 0.23295116601259006 0.0 1.271610999688613 -0.21954363389219836 0.0 0.8526658944807898 -0.2356493549889673 0.0 0.8790639123806655 -0.3099683514435791 0.0 0.852907619615552 -0.29906600407801076 0.0 0.8514220951585959 -0.25640799245536533 0.0 0.8542234091116621 -0.2527930912477499 0.0 0.8962884838879833 -0.3194755357224055 0.0 1.3292280197517072 0.3156828783226074 0.0 1.084632064059333 -0.002356279116065184 0.0 1.3145640625354529 0.3624255593973274 0.0 1.3213419946809288 -0.2959836218484198 0.0 0.0 0.0 0.0 0.0 0.0 0.0 1.299459277617181 -0.3494149611338529 0.0 0.7142517109246905 -0.26734613162364407 0.0 0.8203990603280805 -0.21079140272128444 0.0 0.8711746431663686 -0.11078076866764638 0.0 0.8624468531703927 -0.16379210577960487 0.0 0.9375 0.0 0.0 0.7500000000000001 0.0 0.0 0.7224652312829316 0.2652780612529865 0.0 0.8240295931192733 0.20012055227899223 0.0 0.7499999999999999 0.0 0.0 0.8697120705872341 0.12779858778842637 0.0 0.928710587672192 0.04281571963111795 0.0 0.8481098647594385 0.045041755061416625 0.0 -0.03484996632770112 -0.011580460605963214 0.0 0.09164222821736352 -0.017529192545579123 0.0 1.1149854178358802 0.5547844438745447 0.0 1.018989735326266 0.4731472850573602 0.0 0.8809620309689264 0.24545946222250664 0.0 1.1999903455713763 0.1391340202965156 0.0 1.3288783240554112 0.05989693843801661 0.0 0.3525015151725872 0.038085364279130056 0.0 1.3561649476521622 0.10297070031746859 0.0 0.7140095437722994 0.05389214550921662 0.0 1.1711005076838963 0.10032473423999905 0.0 0.5147998459179246 0.01594960539645507 0.0 0.496415760526749 0.03014189396924607 0.0 0.06997827183659516 0.013424175951771016 0.0 0.9566326867609096 0.03462478473076742 0.0 0.2573798699361395 0.022230300936877487 0.0 0.16350301476441054 0.008598579112789297 0.0 0.2679154946846384 0.014703696981032837 0.0 0.6667829250292866 -0.004706137493195773 0.0 0.49851979033445526 0.007118634746077353 0.0 1.315819313058611 0.019361482983449824 0.0 0.5423878795318798 0.06208230524703506 0.0 1.230249751033423 -0.14196765265216035 0.0 0.20227600339631316 -0.037596944402399954 0.0 1.2058193406874322 0.17362582327494014 0.0 0.8828170751979524 0.17972545803622786 0.0 0.7011324250198677 -0.16795363706046687 0.0 1.1155264730564909 -0.0941948130023703 0.0 1.0385438260755602 -0.22372493717141725 0.0 0.8637579674255793 -0.18267134456573447 0.0 0.8754199899285895 -0.025619793140885347 0.0 0.43967473169850907 -0.04808108519418599 0.0 0.2907646497424084 -0.03302965304271873 0.0 1.3289633675332917 -0.0418242367371726 0.0 0.2087403492605309 -0.013370251524652084 0.0 1.3554203228437454 -0.08629838156667122 0.0 0.19174224441461835 -0.01898990446371581 0.0 0.5358177560369429 -0.015623811006825585 0.0 -0.0014912844995146836 -0.011116469103810662 0.0 0.5724314426953881 -0.03142115535559691 0.0 0.8788789429905971 0.2971430476947507 0.0 0.8795447576438571 0.410759642681887 0.0 0.8850811636598213 0.27033328556250663 0.0 0.9122158250922116 0.10983059367822973 0.0 0.8651695747850939 0.22328640051746473 0.0 0.9047142721006822 0.30371255911152445 0.0 0.8572269756494564 0.23351538422124365 0.0 0.802017644293431 0.1833775984679079 0.0 0.8670486542460992 0.161518001540714 0.0 0.0 0.0 0.0 0.8415115141127284 0.176684493337595 0.0 0.8706496847143812 0.1710054476611648 0.0 1.2131913325162809 0.04979595725032548 0.0 1.2375778488076994 0.06504742430268518 0.0 0.8902908231522152 0.013320869078542963 0.0 0.5942679522501173 -0.025875474992763443 0.0 1.2798984866687433 0.14715714096446067 0.0 0.7176259052995564 -0.17372972416721252 0.0 1.1779696371474326 -0.16449555478727734 0.0 0.9987275952562421 -0.019738490620910366 0.0 1.3235405201470662 -0.0076563000913960405 0.0 0.5857019831488935 -2.3692393101655586e-05 0.0 1.2204799275723308 -0.012541070790784325 0.0 0.9835564598385209 0.009312559272943388 0.0 -0.004472554066265376 -0.0068680003071971045 0.0 -0.09621121666562929 0.0011683280509151668 0.0 0.9448416909606933 0.34122764529051325 0.0 0.877913641325953 -0.018344555165660817 0.0 0.42769721678492334 -0.008067931621333574 0.0 0.0 0.0 0.0 1.3287550594361368 0.03753185816422418 0.0 1.2126372094790727 0.025025078655313934 0.0 1.3173041215937313 0.11466679783964599 0.0 1.2525297657655732 -0.04438215918318706 0.0 0.4138047412281052 -0.013705688125137552 0.0 1.228314176316013 0.010585118087347259 0.0 1.2910266228969578 0.056913277558760786 0.0 0.04113816415368133 -0.009686396971938467 0.0 -0.08255562357989626 -0.005110704225768328 0.0 -0.06767429458458589 -0.0073942944511567925 0.0 -0.08126347393765737 0.0029835284269616163 0.0 1.185811145607853 0.2197621878786492 0.0 0.7774384613258966 0.19847738250346272 0.0 0.7779073141474903 0.15422092219378153 0.0 0.7857334978695424 0.10689453028453111 0.0 0.6205670791628676 0.11097450363697621 0.0 0.3531562930833543 0.001544818521297052 0.0 0.09340294872170658 0.003966372222609055 0.0 0.36495743732459085 -0.02050631115399748 0.0 1.0720166695098352 0.07676511580553554 0.0 0.0 0.0 0.0 0.5200478324806739 0.011527462906673712 0.0 0.9319314767020226 0.02930939878822498 0.0 -0.10942629152866652 0.0006698965082777479 0.0 1.0970031642053264 0.26706126868518915 0.0 0.9003298425167378 0.1123784211955006 0.0 1.280513867654016 -0.0495557954569854 0.0 0.18689854196338324 -0.0035246273097193255 0.0 0.3589154743329609 0.017971412317688524 0.0 0.14317090968651183 0.00031106711962614855 0.0 1.3028497545447437 0.039318367409497436 0.0 -0.10616888888253494 -0.0015225315340614601 0.0 -0.07753372567702617 -0.006425879341222016 0.0 -0.09778733171893463 -0.004436032866612599 0.0 -0.04354743908268206 0.0070431954982170105 0.0 -0.09554722628647057 0.0011700154162071342 0.0 -0.11588805316846519 0.00015074357290987677 0.0 -0.06685981018492662 -0.0018610350089000205 0.0 -0.041383380281555325 0.003530461793330481 0.0 -0.11970876128612151 -0.0018923536815191064 0.0 0.07530173420883222 -0.0019054839331399075 0.0 -0.03883167315988482 0.0057349241198286745 0.0 -0.12307402617588172 -0.0009172129503295996 0.0 -0.12176337315323264 -0.0005792999991889531 0.0 -0.023739297843073645 -0.0022940589259016803 0.0 0.0 0.0 0.0 0.9464035021139383 0.2554709383243353 0.0 0.951351698779079 0.04008962424141553 0.0 0.22490308192348477 -0.004326408741708431 0.0 0.3088439799743283 -0.004392857780330849 0.0 0.5444465491673898 0.02107089246750866 0.0 0.9123048209144043 0.04310525288820506 0.0 1.192015315892642 0.03463770380521387 0.0 1.3538164606665568 0.014667068021847437 0.0 0.08809220026058907 0.0024003653932812897 0.0 -0.03590594006755402 0.00020660687738170453 0.0 0.022751429194070565 -0.011437132099129213 0.0 0.13542410110269285 -0.008654980512368998 0.0 0.1256231989158063 -0.013696768972689037 0.0 0.3155394628821834 -0.02321924232410029 0.0 0.5753928351178149 -0.05092882070610745 0.0 0.8596324108279827 -0.052478565235784924 0.0 0.36683722779524747 -0.03172288204648713 0.0 0.5553039312970899 -0.0358428598841655 0.0 0.6506462115106308 -0.047799262437813954 0.0 0.7702723908101883 -0.04108837846930557 0.0 0.25924161580136057 -0.028148179844578253 0.0 1.273032854930868 -0.06471529582014113 0.0 1.0587110427438862 -0.05189041733655108 0.0 1.2866678869079862 -0.029122227019421177 0.0 1.0491409571601116 -0.0397530703812754 0.0 -0.04273857784084366 -0.008493822212051787 0.0 1.0273408873864687 -0.06708579563153147 0.0 1.060242932327258 -0.030091039173580327 0.0 1.22679427689838 -0.10378773978647865 0.0 -0.10881268357366966 -0.0017939261063779218 0.0 0.4605667405589099 -0.04561604508853466 0.0 1.2517087503532522 -0.10565621658404446 0.0 0.13170926445516884 -0.021550742303050336 0.0 -0.12207151196752415 -0.0005471565996441009 0.0 1.2618188407258795 -0.0874664529498271 0.0 0.06339216156567644 -0.020682471690131467 0.0 -0.11152500228924038 -0.002186429309357577 0.0 -0.02652802587736109 0.010346301228904472 0.0 0.045819638522827125 -0.01736360085420621 0.0 -0.06762138164701127 -0.0075647250778493585 0.0 0.41883089292378384 -0.048836368232930305 0.0 -0.047515462190715244 -0.010250919509011252 0.0 0.1114711900524647 0.030574743553647508 0.0 -0.08260014810973285 0.006116427315335903 0.0 -0.07280764542055722 -0.005739554987069072 0.0 -0.09963976677786876 0.001182130277515245 0.0 0.03907326656045677 0.01754700548603224 0.0 1.2157435319845753 0.1022383622975608 0.0 0.32726938750143836 0.03760782667645326 0.0 0.30492780311297146 -0.044468743401306646 0.0 0.2557839575914148 -0.010115037804623693 0.0 0.7081807424247571 -0.020575277638990974 0.0 0.3062995101978918 0.005742207412173811 0.0 1.1765206957977643 0.05303571114145436 0.0 0.8887683908830433 0.061073181292197805 0.0 0.9295463919422626 -0.08280168397297248 0.0 -0.04781550093075239 -0.004021088195440586 0.0 -0.05881945772616225 -0.003517563210287896 0.0 -0.11908470721647543 -0.0012744063506982283 0.0 -0.045854069522976146 0.004309448427059376 0.0 -0.07955560570662047 -0.003979792804844585 0.0 0.32605326351268166 -0.03841956790001173 0.0 1.2585519664777898 -0.09359506519929628 0.0 0.6263701079574352 -0.061582472445190606 0.0 0.8940651800542743 -0.08585838093569423 0.0 -0.029329901709117354 0.013314058069907368 0.0 0.06110212739942916 -0.022479527196021806 0.0 -0.007340177678816887 -0.01446001796127169 0.0 0.20877564763953088 -0.0382858966613844 0.0 -0.016301717188060172 -0.014024461185105717 0.0 1.25278327149755 0.10593656032787839 0.0 -0.06699220969498076 -0.0004830243336977249 0.0 -0.015402798608017295 0.011168881908999242 0.0 -0.051683338084331315 0.0006240116304585669 0.0 0.05484778125017951 -0.021396891365846663 0.0 0.33713556186878335 0.024780118584970676 0.0 0.688366450501887 -0.07001330815814105 0.0 0.5076641441904064 -0.05965039929787347 0.0 0.7871627897388388 -0.06831487033094825 0.0 0.26483395078529903 -0.03813051806743416 0.0 0.8197392681272515 -0.08759986154368601 0.0 1.166772744388813 -0.09108883875663519 0.0 1.0677945957754846 -0.08367641971342636 0.0 1.0409896060388644 -0.0751810627638388 0.0 0.5924765649588457 -0.0693335515843303 0.0 0.5040732770209084 -0.06433331224186185 0.0 0.3915039035174532 -0.05724759619958327 0.0 0.36675986704122104 -0.05384343777121527 0.0 0.14467071678365714 -0.03263750113396546 0.0 0.7874824100001262 -0.08827383116936496 0.0 0.2595835557304228 0.01488168236712887 0.0 0.6067174633079746 0.0379694043741897 0.0 0.06682972217823155 0.0061917941531859115 0.0 0.17130895953053382 0.017990390015912003 0.0 -0.07049604299338949 0.00047893704490721816 0.0 1.332646245789143 -0.024369533327406715 0.0 1.217797964393877 0.041137632003487745 0.0 1.3552825635515715 -0.012060155634768062 0.0 1.326846658252954 -0.06322643452145325 0.0 0.16959090939189778 -0.03561154717149162 0.0 0.35791861118072776 -0.054712298453454336 0.0 0.558474518349521 0.046905370489634154 0.0 0.08687304069381839 0.015774617759492814 0.0 1.3081259713284363 0.004102590122572271 0.0 1.3483639829999197 -0.03298863382528591 0.0 0.5162946897953229 0.06858433065132492 0.0 1.3272755643785106 -0.07672295693206657 0.0 0.5884468050074602 0.04340324268548637 0.0 1.2822102901112875 0.07194272169311605 0.0 0.3324277189568337 0.03375747387469454 0.0 0.7036853816349338 0.0638631370341181 0.0 1.334596061998338 0.024176368704527582 0.0 1.2313489420848915 -0.024207126454625513 0.0 1.3179728418157457 -0.08675880113130954 0.0 0.8246406996543405 0.061449916815787986 0.0 1.0473961574063773 0.0789879146620706 0.0 1.1066837548701034 0.07238816900704838 0.0 1.2663345886466506 0.09846228267813766 0.0 1.1279216951196271 0.09727342402457524 0.0 0.9743494744674471 0.08130041601397912 0.0 0.6682012903488713 0.06741885071690855 0.0 1.273587080025242 -0.09006035585936875 0.0 0.0 0.0 0.0 1.3077974847202514 0.05780585832019187 0.0 0.9161383325369031 0.08957804423183771 0.0 0.32474748423516403 0.0421630131378087 0.0 1.3157082112442122 0.07159662866981457 0.0 0.8986829274308573 0.0853750923952953 0.0 1.2703088149330006 0.09125300370624251 0.0 0.5974058114728992 0.06634564495906087 0.0 1.261326575706746 0.10350565129209466 0.0 0.5480854372934612 0.068243556507885 0.0 0.2551213215334646 0.04048245850025611 0.0 1.1458791829036135 0.10153216375585568 0.0 0.6604791778985323 0.07482574512546208 0.0 1.0714077004377385 0.10329002579030881 0.0 0.8435287077460829 0.09050018437663879 0.0 0.7743418611553585 0.08861103109218667 0.0 1.195183249468001 0.08869822749186357 0.0 1.1155240580615136 0.09185859237697047 0.0 1.3060005724983985 0.0818509498949893 0.0 0.15517207551560075 0.02911909326626556 0.0 1.1520272271955534 0.0789771475278808 0.0 1.215693284054235 0.10638501799411267 0.0 1.1563592249319126 0.10732223771598558 0.0 1.2329197259060818 0.10678357925648439 0.0 1.2429652375420785 0.10795846784024432 0.0 1.2909313587872464 0.08701189022196702 0.0 1.183058292098385 0.06839551800348341 0.0 0.9434229604067909 0.10104673732102237 0.0 1.228989314750004 0.09233313294773322 0.0 1.2787301490612124 0.09059476799990941 0.0 1.0450334477586314 0.06521220551242646 0.0 1.1612542745076257 0.1091881289193153 0.0 1.0777880959748216 0.10749081562835648 0.0 1.058406722931242 0.10590048124767715 0.0 1.2320677521785102 0.09654884941699918 0.0 0.0 0.0 0.0 0.644505710234621 -0.005620800451904999 0.0 1.0778066074673345 0.43424761841293075 0.0 1.1668706795965105 0.4222706706516024 0.0 1.0822825780387297 -0.42677397815276785 0.0 0.8656195399108524 -0.2270155532116578 0.0 0.9789058409324302 -0.2554951596359853 0.0 0.8923721653352259 -0.0850118771579798 0.0 1.2229290438743727 -0.05221835682733678 0.0 1.0815669989841081 -0.06394722824287614 0.0 1.198853365914511 -0.10440166904313912 0.0 1.2651265100305535 -0.08448593153491242 0.0 1.31529671048139 -0.053644036192487324 0.0 -0.08327926562626399 -0.002546766848380206 0.0 -0.050343061969206675 0.007690023061083124 0.0 0.0008677973212328107 0.010063073507104168 0.0 0.0007375390461101642 0.011991563801424144 0.0 0.14705021678068672 0.026822705322073346 0.0 -0.05718708541818621 0.00816426321652414 0.0 0.0613656954297243 0.021813033726365276 0.0 0.2174089724924468 0.03709478222918739 0.0 0.0850786852448023 0.03817151421030328 0.0 -0.03619657849343275 0.014981395214591409 0.0 1.0348382358439427 0.16080872302314275 0.0 -0.07023660724778506 0.004914201932378807 0.0 1.2553933367060128 -0.10065026183227516 0.0 1.1428728837650215 -0.0982304603907385 0.0 0.9519802230187774 -0.09244331568848144 0.0 1.105253805685544 -0.10218296536290691 0.0 1.2403852157533442 -0.10681903500690931 0.0 0.9148447052457858 -0.09541464858230976 0.0 1.2479836420913641 -0.10691889366278645 0.0 1.0794290346375999 -0.10506058231767222 0.0 1.1344015459157524 -0.10498854852569686 0.0 0.8661228821891139 -0.09508417020722751 0.0 0.9094528038294828 -0.09739627422478359 0.0 0.6288188886408056 -0.07776809280877271 0.0 1.1059996715312683 -0.10771561808205028 0.0 1.2340584117579056 -0.10669867529384794 0.0 1.0707839844555689 -0.1056636623581794 0.0 1.168045426913595 -0.08604960827019016 0.0 1.1943432777009746 -0.10892259131749829 0.0 0.6851120459628888 -0.08216778018583488 0.0 1.142433770764967 -0.10624486563319674 0.0 0.9416349272087163 -0.0991