<?xml version="1.0"?>
<VTKFile type="UnstructuredGrid"  version="0.1"  >
<UnstructuredGrid>
<Piece  NumberOfPoints="1289" NumberOfCells="2413">
<Points>
<DataArray  type="Float64"  NumberOfComponents="3"  format="ascii">0 0 0  0 0.41 0  2.2 0.41 0  2.2 0 0  0.1 0.1 0  0.1 0.3 0  0.8 0.3 0  0.8 0.1 0  0.25 0.2 0  0.248976 0.210065 0  0.245948 0.219718 0  0.241038 0.228563 0  0.234448 0.23624 0  0.226448 0.242432 0  0.217365 0.246888 0  0.207571 0.249423 0  0.197468 0.249936 0  0.187467 0.248404 0  0.17798 0.24489 0  0.169395 0.239539 0  0.162062 0.232569 0  0.156283 0.224265 0  0.152293 0.214968 0  0.150257 0.205058 0  0.150257 0.194942 0  0.152293 0.185032 0  0.156283 0.175735 0  0.162062 0.167431 0  0.169395 0.160461 0  0.17798 0.15511 0  0.187467 0.151596 0  0.197468 0.150064 0  0.207571 0.150577 0  0.217365 0.153112 0  0.226448 0.157568 0  0.234448 0.16376 0  0.241038 0.171437 0  0.245948 0.180282 0  0.248976 0.189935 0  1.1 0 0  1.1 0.41 0  0.1 0.2 0  0.45 0.1 0  0.45 0.3 0  0.55 0 0  0.275 0.1 0  0.275 0.3 0  0.275 0 0  0.55 0.41 0  0 0.205 0  0.825 0 0  0.825 0.41 0  0.275 0.41 0  0.1 0.15 0  0.1875 0.1 0  0.1 0.25 0  0.1875 0.3 0  0.132322 0.2 0  0.241426 0.253518 0  0.241426 0.146482 0  0.264574 0.17974 0  0.264574 0.22026 0  0.138434 0.187348 0  0.153372 0.150948 0  0.148413 0.164094 0  0.176495 0.136535 0  0.22768 0.143571 0  0.138434 0.212652 0  0.148413 0.235906 0  0.176495 0.263465 0  0.22768 0.256429 0  0.23125 0.3 0  0.24769 0.24094 0  0.23125 0.1 0  0.24769 0.15906 0  0.26253 0.193641 0  0.190482 0.137872 0  0.166753 0.146661 0  0.157737 0.244461 0  0.190482 0.262128 0  0.203107 0.261264 0  0.253635 0.22977 0  0.203107 0.138736 0  0.253635 0.17023 0  0.261028 0.206206 0  0.167707 0.251809 0  0.143629 0.224191 0  0.215302 0.2591 0  0.270465 0.245894 0  0.215302 0.1409 0  0.270465 0.154106 0  0.284052 0.202587 0  0.14375 0.3 0  0.209375 0.3 0  0.225966 0.278501 0  0.209375 0.1 0  0.225966 0.121499 0  0.211613 0.273759 0  0.211613 0.126241 0  0.143629 0.175809 0  0.1 0.175 0  0.133484 0.164832 0  0.144491 0.249539 0  0.1 0.225 0  0.133484 0.235168 0  0.3625 0.3 0  0.25691 0.253381 0  0.25691 0.146619 0  0.277205 0.188698 0  0.184724 0.275712 0  0.237372 0.268285 0  0.184724 0.124288 0  0.237372 0.131715 0  0.197578 0.273149 0  0.193656 0.286994 0  0.197578 0.126851 0  0.193656 0.113006 0  0.122953 0.187671 0  0.118362 0.153758 0  0.155372 0.258107 0  0.122953 0.212329 0  0.118362 0.246242 0  0.276394 0.27264 0  0.276394 0.12736 0  0.280965 0.170013 0  0.253125 0.3 0  0.14375 0.1 0  0.253125 0.1 0  0.269489 0.26014 0  0.269489 0.13986 0  0.303639 0.184297 0  0.165625 0.3 0  0.134742 0.273113 0  0.257831 0.274737 0  0.255279 0.128499 0  0.3625 0.1 0  0.165625 0.1 0  0.162031 0.132368 0  0.134955 0.126405 0  0.149334 0.125568 0  0.142936 0.139597 0  0.12695 0.140259 0  0.242514 0.285501 0  0.242514 0.114499 0  0.1 0.125 0  0.117483 0.12555 0  0.11154 0.139776 0  0.121875 0.1 0  0.109143 0.1125 0  0.126805 0.114 0  0.220313 0.29129 0  0.351562 0.287369 0  0.207222 0.2866 0  0.220312 0.10871 0  0.1375 0 0  0.20625 0 0  0.207222 0.1134 0  0.11722 0.17118 0  0.1 0.1625 0  0.0778409 0.16875 0  0.0862762 0.15625 0  0 0.15375 0  0 0.1025 0  0.11722 0.22882 0  0.1 0.2375 0  0 0.3075 0  0.0862762 0.23125 0  0.0598995 0.222547 0  0.0860223 0.2125 0  0.289584 0.181469 0  0.300267 0.16446 0  0.163832 0.269071 0  0.149597 0.273325 0  0.1 0.275 0  0.268498 0.285953 0  0.31875 0.3 0  0.294154 0.254672 0  0.296875 0.3 0  0.293558 0.271845 0  0.285095 0.286799 0  0.324298 0.264316 0  0.307866 0.263745 0  0.317093 0.234901 0  0.315485 0.281219 0  0.316547 0.250625 0  0.344693 0.243731 0  0.331592 0.251147 0  0.35129 0.270663 0  0.338689 0.263683 0  0.340625 0.3 0  0.249849 0.264383 0  0.265097 0.11422 0  0.284688 0.156136 0  0.242188 0.324017 0  0.0856613 0.2625 0  0.132812 0.0612217 0  0.264062 0.0612217 0  0.198437 0.07598340000000001 0  0.0860223 0.1375 0  0.0794526 0.191089 0  0.285228 0.140397 0  0.298655 0.148737 0  0.31875 0.1 0  0.327335 0.15374 0  0.296875 0.1 0  0.312289 0.155283 0  0.313348 0.135607 0  0.321802 0.173916 0  0.298433 0.134116 0  0.112124 0.2625 0  0.127526 0.259083 0  0.121875 0.3 0  0.0682687 0.241503 0  0.1 0.2875 0  0.117762 0.28125 0  0.107813 0.3 0  0.103906 0.313849 0  0.0778409 0.28125 0  0.1375 0.41 0  0.0862762 0.29375 0  0.08886860000000001 0.24375 0  0.307812 0.338778 0  0.307812 0.292227 0  0.33216 0.279164 0  0.387888 0.266414 0  0.264063 0.31948 0  0.110937 0.07598340000000001 0  0.242188 0.07598340000000001 0  0.319914 0.11839 0  0.340625 0.1 0  0.334448 0.133793 0  0.329687 0.108539 0  0.346259 0.118491 0  0.360334 0.173636 0  0.327539 0.205033 0  0.132812 0.288712 0  0.362436 0.278836 0  0.368105 0.259418 0  0.4125 0.41 0  0.329687 0.324017 0  0.329687 0.292306 0  0.285938 0.318952 0  0.417187 0.338778 0  0.324481 0.14148 0  0.351562 0.106771 0  0.40625 0.1 0  0.341028 0.168342 0  0.319221 0.190479 0  0.335292 0.184501 0  0.305563 0.20794 0  0.220313 0.31948 0  0.132812 0.332772 0  0.0865876 0.311259 0  0.0598995 0.302453 0  0.0906541 0.343255 0  0.353543 0.255837 0  0.36574 0.237633 0  0.405007 0.254279 0  0.275795 0.352123 0  0.4125 0 0  0.35493 0.137394 0  0.366563 0.120618 0  0.35917 0.205246 0  0.198438 0.318952 0  0.0626109 0.263892 0  0.40625 0.3 0  0.354809 0.155936 0  0.386512 0.146872 0  0.373101 0.159939 0  0.384375 0.1 0  0.343394 0.19929 0  0.350682 0.185683 0  0.368101 0.189748 0  0.344016 0.221511 0  0.391108 0.213329 0  0.376279 0.204783 0  0.398843 0.182768 0  0.375804 0.222746 0  0.390665 0.196958 0  0.394004 0.23518 0  0.359883 0.222828 0  0.419908 0.204359 0  0.404243 0.204783 0  0.412615 0.224526 0  0.20625 0.41 0  0.165625 0.325257 0  0.0347982 0.244954 0  0.379558 0.247154 0  0.34165 0.147603 0  0.372264 0.136992 0  0.388988 0.121989 0  0.373437 0.108554 0  0.351562 0.31948 0  0.391367 0.16527 0  0.399572 0.223324 0  0.452011 0.227371 0  0.40877 0.239392 0  0.431491 0.237337 0  0.421224 0.250459 0  0.449619 0.262098 0  0.418865 0.276779 0  0.437063 0.252274 0  0.415673 0.263227 0  0.430988 0.266772 0  0.402767 0.273419 0  0.452967 0.244883 0  0.428125 0.3 0  0.408502 0.286186 0  0.384375 0.3 0  0.392267 0.285807 0  0.465927 0.219339 0  0.43489 0.283846 0  0.376424 0.286289 0  0.625 0.3 0  0.473533 0.205186 0  0.461713 0.255517 0  0.5375 0.3 0  0.465725 0.235405 0  0.44631 0.201425 0  0.471875 0.3 0  0.494307 0.227729 0  0.459448 0.206736 0  0.462294 0.180792 0  0.478933 0.227536 0  0.486793 0.21381 0  0.486322 0.251373 0  0.50065 0.215318 0  0.54005 0.175389 0  0.474633 0.189893 0  0.512916 0.208697 0  0.49531 0.199967 0  0.475889 0.175275 0  0.625 0.1 0  0.459311 0.153933 0  0.513645 0.242704 0  0.392892 0.248539 0  0.374815 0.271913 0  0.365974 0.14871 0  0.395312 0.109184 0  0.417061 0.123981 0  0.483196 0.277003 0  0.381967 0.179632 0  0.429898 0.219374 0  0.433473 0.206165 0  0.43149 0.181038 0  0.444208 0.215487 0  0.472985 0.247309 0  0.49375 0.3 0  0.475579 0.262714 0  0.49916 0.274293 0  0.501175 0.184809 0  0.514164 0.225681 0  0.543648 0.214977 0  0.5341630000000001 0.23481 0  0.527396 0.216171 0  0.5375 0.1 0  0.534548 0.202315 0  0.561545 0.192513 0  0.5494289999999999 0.201221 0  0.570923 0.218346 0  0.412582 0.149833 0  0.489327 0.264745 0  0.502439 0.254775 0  0.462391 0.271166 0  0.496775 0.241732 0  0.5294410000000001 0.268606 0  0.482812 0.291099 0  0.46879 0.285038 0  0.452663 0.284065 0  0.51789 0.257882 0  0.53408 0.252026 0  0.560142 0.243543 0  0.545708 0.243474 0  0.547532 0.229019 0  0.55282 0.265323 0  0.398971 0.153424 0  0.400349 0.135684 0  0.410135 0.168145 0  0.428823 0.161323 0  0.415266 0.183779 0  0.329687 0.0810483 0  0.395312 0.0612217 0  0.373437 0.318952 0  0.439062 0.324017 0  0.561816 0.229354 0  0.585029 0.239287 0  0.431827 0.139854 0  0.446796 0.168929 0  0.351562 0.07598340000000001 0  0.395313 0.318944 0  0.54337 0.150762 0  0.460937 0.31948 0  0.418412 0.137529 0  0.428125 0.1 0  0.442783 0.152332 0  0.450742 0.134294 0  0.373437 0.0805201 0  0.384383 0.342558 0  0.482812 0.318952 0  0.429239 0.127457 0  0.444274 0.117405 0  0.426548 0.113815 0  0.49375 0.1 0  0.488954 0.113984 0  0.457973 0.121842 0  0.471621 0.137346 0  0.515625 0.325257 0  0.48125 0.41 0  0.417187 0.07598340000000001 0  0.496363 0.126778 0  0.479043 0.155715 0  0.439062 0.0805201 0  0.481795 0.126919 0  0.471875 0.1 0  0.489227 0.142159 0  0.515625 0.1 0  0.520062 0.147117 0  0.501244 0.161791 0  0.505431 0.112984 0  0.505344 0.14029 0  0.526563 0.119081 0  0.5181750000000001 0.131908 0  0.539868 0.136937 0  0.460937 0.108383 0  0.474242 0.114415 0  0.460937 0.0810483 0  0.487841 0.167168 0  0.526563 0.0612217 0  0.526563 0.106406 0  0.537619 0.112743 0  0.58125 0.1 0  0.559375 0.1 0  0.482812 0.08105569999999999 0  0.471883 0.0587655 0  0.570312 0.129396 0  0.548437 0.07598340000000001 0  0.504687 0.08105569999999999 0  0.49375 0.0470127 0  0.570312 0.112663 0  0.592798 0.12103 0  0.553986 0.12103 0  0.570312 0.0805201 0  0.48125 0 0  0.114787 0.2 0  0.160769 0.284765 0  0.175816 0.288361 0  0.162602 0.116048 0  0.154687 0.07598340000000001 0  0.176562 0.0805201 0  0.0598995 0.147547 0  0.307812 0.109924 0  0.291279 0.117157 0  0.278491 0.112989 0  0.285937 0.07598340000000001 0  0.307812 0.0805201 0  0.296928 0.196743 0  0.318141 0.218507 0  0.330208 0.227509 0  0.301397 0.225668 0  0.302706 0.241401 0  0.292574 0.21424 0  0.282762 0.230935 0  0.284351 0.244775 0  0.269553 0.23261 0  0.278572 0.217242 0  0.226924 0.342606 0  0.446928 0.185396 0  0.515625 0.3 0  0.504687 0.288879 0  0.515256 0.276534 0  0.529479 0.285328 0  0.58125 0.3 0  0.541969 0.272936 0  0.559375 0.3 0  0.556796 0.282529 0  0.543473 0.287206 0  0.581429 0.267774 0  0.566728 0.271171 0  0.570869 0.255585 0  0.577404 0.283865 0  0.603125 0.3 0  0.597531 0.28035 0  0.570312 0.338778 0  0.592188 0.292492 0  0.603513 0.256094 0  0.614063 0.286265 0  0.610329 0.27064 0  0.632708 0.251285 0  0.657223 0.261594 0  0.618789 0.257807 0  0.614188 0.22987 0  0.630935 0.265614 
[...]
<PointData  Vectors="v"> 
	<DataArray  type="Float64"  Name="v"  NumberOfComponents="3" format="ascii">
0.0 0.0 0.0 0.0 0.0 0.0 0.0 0.0 0.0 0.0 0.0 0.0 0.796224214069542 -0.19596334563973944 0.0 0.84041498741772 0.20778513266585644 0.0 1.1697839552984877 -0.05914050977410483 0.0 1.1352820895443514 0.05574972366149078 0.0 0.0 0.0 0.0 0.0 0.0 0.0 0.0 0.0 0.0 0.0 0.0 0.0 0.0008230004913020214 0.0007359089958770714 0.0 -0.0012788991795102279 -0.002351255177538386 0.0 2.0216667061350876e-05 4.757991623640163e-05 0.0 0.0 0.0 0.0 0.0 0.0 0.0 0.0 0.0 0.0 0.0 0.0 0.0 0.0 0.0 0.0 0.0 0.0 0.0 0.0 0.0 0.0 0.0 0.0 0.0 0.0 0.0 0.0 0.0 0.0 0.0 0.0 0.0 0.0 0.0 0.0 0.0 0.0 0.0 0.0 0.0 0.0 0.0 0.0 0.0 0.0 0.0 0.0 0.0 0.0 0.0 0.0 0.0 0.0 0.0 0.0009827938013801582 -0.001705178179347331 0.0 0.0020398026329601147 -0.003398198295804339 0.0 0.0008807666673236299 -0.0008516819483356773 0.0 0.0 0.0 0.0 0.0 0.0 0.0 0.0 0.0 0.0 0.0 0.0 0.0 0.0 0.0 0.0 0.761329449983029 -0.0012535412847976388 0.0 1.275410972133087 0.08276700668463867 0.0 1.2664396109660685 -0.07756084542793992 0.0 0.0 0.0 0.0 1.3535817696627699 -0.1330542430957224 0.0 1.358220802749502 0.15482731271792755 0.0 0.0 0.0 0.0 0.0 0.0 0.0 1.0 0.0 0.0 0.0 0.0 0.0 0.0 0.0 0.0 0.0 0.0 0.0 0.8425884619720613 -0.2318602244476808 0.0 1.1513507513690358 -0.3442809173287278 0.0 0.8637883392680911 0.22933164507780535 0.0 1.1663279285971728 0.35413488773870294 0.0 0.4282368373681693 -0.003926567278505285 0.0 0.1639299294771081 0.06201322208842136 0.0 0.1711188738410074 -0.06138791750111079 0.0 -0.02750253017102694 -0.03832587350534412 0.0 -0.02601695463310536 0.03646046756150886 0.0 0.3343717196826881 -0.2797954516054568 0.0 0.8578757932812461 -0.6734195368699873 0.0 0.6399776711993295 -0.6881109092742573 0.0 1.2061329614648577 -0.6132560507208931 0.0 0.4143818274148934 -0.06971886768769808 0.0 0.33045531465640837 0.26879613857727197 0.0 0.6428504624321588 0.669368897091084 0.0 1.185167171417699 0.6154242768432271 0.0 0.40910844300727794 0.07089121276489954 0.0 1.3133094341050007 0.26084201805532875 0.0 0.3246280428871465 0.2534330189831581 0.0 1.3025517432648575 -0.24057809196795543 0.0 0.3149325563374143 -0.23923924551312187 0.0 -0.033550186164228446 -0.01690916781241275 0.0 1.1249468981735942 -0.39873059695025437 0.0 1.093188797384208 -0.7243100044590229 0.0 0.8520785480294619 0.7707829596303073 0.0 1.131340345389384 0.3995793206352491 0.0 0.7592965478368845 0.1860865317048405 0.0 0.10889858313480694 0.05170746444848244 0.0 0.7694624065396557 -0.18182676505198023 0.0 0.1113313083542864 -0.04988047742857726 0.0 -0.02961433537275333 0.019208139181457185 0.0 1.0275253147184122 0.7189116510032069 0.0 0.4423990205217273 0.5292448983606994 0.0 0.4584674650523508 0.17842690534401537 0.0 0.2719222357823935 0.0692241611455333 0.0 0.46363265920378016 -0.17287704240830828 0.0 0.2776710552361038 -0.06471905255973638 0.0 -0.07523099067663658 0.002453560782043718 0.0 0.9654991720743937 0.31744352280892246 0.0 1.2606346061866434 0.3132373030049192 0.0 1.245293729382958 0.2889026166752768 0.0 1.2347510038076086 -0.3076078354121675 0.0 1.2476551408165266 -0.28097338199216804 0.0 1.2202381366518582 0.33114611755609685 0.0 1.2260761991496998 -0.3225282158196621 0.0 0.44287213340966974 -0.5445237685965644 0.0 0.8020126628785466 -0.13959715953869403 0.0 0.6714978359177242 -0.4196514381141334 0.0 0.877387221531514 0.5938869345611912 0.0 0.7993106604462643 0.14283654769609538 0.0 0.6765058140800535 0.4201986773313608 0.0 1.292936315712496 -0.007272432917737264 0.0 0.2933773654894957 0.14489280080754033 0.0 0.29511447802155977 -0.13439742495534548 0.0 -0.05443564213085375 -0.012806444825095395 0.0 1.265093124110311 0.4718845972305436 0.0 0.768883604422642 0.12069387008474092 0.0 1.2610975402695581 -0.47322038732161636 0.0 0.7888865442942482 -0.11570643297542112 0.0 1.2756374888129152 0.4181614781964921 0.0 1.2540575542512478 0.4011971368622734 0.0 1.2715479169235782 -0.4141407190132013 0.0 1.2446396129987785 -0.3810490196443722 0.0 0.5835225280725616 -0.16048154366216122 0.0 0.7964238507491556 -0.3317706648747825 0.0 1.0104541284489803 0.6038445597135633 0.0 0.5917559526938242 0.1506548691421883 0.0 0.8125719378929446 0.33174260770281605 0.0 0.7459371497967194 0.08091009415768155 0.0 0.782626889951421 -0.07299363926234556 0.0 0.052398498292316256 -0.021966944971143126 0.0 1.3635569594935204 0.20743756300379035 0.0 0.9298006430993541 -0.32218856658258643 0.0 1.3444466318226231 -0.19006441576024313 0.0 0.4093713780441903 0.09112045927286816 0.0 0.42740402788780585 -0.07824272538394049 0.0 -0.054607176799977335 -0.007935288291152311 0.0 1.0573910676439564 0.3540438843602745 0.0 0.9431760866146889 0.39151224123086936 0.0 0.9224403506880158 0.11230558415975614 0.0 0.8240324154583092 -0.08699381978373878 0.0 1.3066579773679514 0.016588606023351594 0.0 1.0274764778012473 -0.3451498937055086 0.0 1.0744691183217787 -0.5702804228385837 0.0 0.9301151899317389 -0.38935528995520824 0.0 0.9974452470836204 -0.43860656244736806 0.0 0.9329108789642867 -0.5427852428652621 0.0 0.8655171765162373 -0.406459804048936 0.0 1.2733225736711684 0.23287099344774764 0.0 1.2715809595799077 -0.21962833401531442 0.0 0.8526468930819016 -0.23560434806455074 0.0 0.8790367006775442 -0.3099196399740135 0.0 0.8528845031325973 -0.29901202645547886 0.0 0.8513927907891582 -0.2563712306249853 0.0 0.8541995803265474 -0.25275178341502347 0.0 0.896257076853459 -0.31943147313213893 0.0 1.3293591492355654 0.3156543302988597 0.0 1.0849037931679388 -0.0024793269040205117 0.0 1.314676181144472 0.3624290669972319 0.0 1.3212021871623545 -0.29599757698733026 0.0 0.0 0.0 0.0 0.0 0.0 0.0 1.2993474970525607 -0.34939595050289796 0.0 0.7142359901318667 -0.26727461244844863 0.0 0.8203848146745137 -0.21073239912181257 0.0 0.8711683352839857 -0.11073199371276991 0.0 0.8624365144685004 -0.1637422052876506 0.0 0.9375 0.0 0.0 0.7500000000000001 0.0 0.0 0.7224823798907546 0.26534912094040075 0.0 0.8240448800717262 0.2001790978327582 0.0 0.7499999999999999 0.0 0.0 0.8697216144198914 0.12785187936791975 0.0 0.928714385138659 0.042851717413088894 0.0 0.8481129617508644 0.04509754644414789 0.0 -0.03491220472536062 -0.011402338097842184 0.0 0.09166614040928159 -0.01737793877064515 0.0 1.1150416471864688 0.5548294762112755 0.0 1.0190374419755475 0.473192748308809 0.0 0.8809815439362668 0.2455031795524898 0.0 1.2001822694252091 0.13905330504718597 0.0 1.3289819749186036 0.059788154088663795 0.0 0.3525127992423147 0.03808779423984117 0.0 1.3562637321590145 0.10286579040486288 0.0 0.7142466703000834 0.05383031502057876 0.0 1.1713288942355875 0.10024048785253384 0.0 0.515033731845645 0.01587006309227731 0.0 0.49658622623429605 0.030087868121819697 0.0 0.07005693969256159 0.013467878999907385 0.0 0.956943244420089 0.03452872644217372 0.0 0.25751245236314557 0.02221968904504222 0.0 0.1636880532947763 0.008533249302532868 0.0 0.2680992687173809 0.014655572957420156 0.0 0.6670997866382067 -0.004835828020435699 0.0 0.4987893399520767 0.007014823840793057 0.0 1.3159334995555207 0.019249874799776582 0.0 0.5424900366946896 0.061968179143083786 0.0 1.2300418551895462 -0.1420466893303559 0.0 0.20245650807968366 -0.037515549295637836 0.0 1.2058576426537795 0.17356353533246158 0.0 0.8828299946301561 0.17976822323961 0.0 0.7011012452528196 -0.16793350129608794 0.0 1.1155088538582398 -0.09425606971560858 0.0 1.038484315568132 -0.223726553583299 0.0 0.8637450736806672 -0.1826280371454489 0.0 0.8754190108585748 -0.025568160452535224 0.0 0.43970096172283 -0.04811106030955174 0.0 0.29086296858391275 -0.03296952406480011 0.0 1.3288617717836335 -0.04191594246539816 0.0 0.20868086590409057 -0.01334956079552051 0.0 1.3553185228010898 -0.08637655403333047 0.0 0.19174375533797386 -0.018912971405357238 0.0 0.5356861414350065 -0.01565829645055397 0.0 -0.0015325066641435048 -0.01103889903507772 0.0 0.5722982573465915 -0.03145843045947538 0.0 0.8789039568060409 0.29719427267270804 0.0 0.8795771642202611 0.41081780835573867 0.0 0.885109555908364 0.2703676276679313 0.0 0.9122225460389103 0.10987052698527264 0.0 0.8651888365162685 0.22332304243351228 0.0 0.9047425302373832 0.30375627684074713 0.0 0.8572496349730225 0.23354946545092875 0.0 0.802037524693771 0.1834042646323818 0.0 0.8670609956212978 0.1615512461872924 0.0 0.0 0.0 0.0 0.8415257175721266 0.17671625635253355 0.0 0.8706618379432816 0.17105545931536487 0.0 1.2131435017180145 0.0497102746424507 0.0 1.2377870269036684 0.06494917400080784 0.0 0.8906041914384077 0.013212031965924744 0.0 0.5945805041354516 -0.02602807860601683 0.0 1.2799110169005574 0.14705641539165176 0.0 0.7176041325481254 -0.17370230112549023 0.0 1.177917770306136 -0.16453899657263757 0.0 0.9984273582017927 -0.01981607787231323 0.0 1.3234169088272845 -0.007764151185573842 0.0 0.5854769032973342 -9.853645517570269e-05 0.0 1.2202487341529582 -0.012645148819864623 0.0 0.9832409819456434 0.009198481658731677 0.0 -0.004553965830675744 -0.006924943625272816 0.0 -0.09621775215691122 0.0012168296754836226 0.0 0.9448774470637481 0.3412670167402271 0.0 0.8782279485217369 -0.018479808014356988 0.0 0.42798954279273366 -0.008201847616227442 0.0 0.0 0.0 0.0 1.3286794445896855 0.03742786661020697 0.0 1.2128598395701646 0.024908034699355628 0.0 1.317299280018809 0.11456372085182379 0.0 1.252347657175639 -0.044429787895987824 0.0 0.4136923948390339 -0.013728163389789692 0.0 1.2281069646062646 0.010462935782963232 0.0 1.291004955730325 0.05679912317083128 0.0 0.04107269137626408 -0.009690402052282525 0.0 -0.08258937005321682 -0.005020792025916132 0.0 -0.06771160192610252 -0.007359490512117925 0.0 -0.08128370795949803 0.003106065219890884 0.0 1.1858694527867828 0.21971250768691303 0.0 0.7774650402923592 0.19849672754477574 0.0 0.7779203988628768 0.1542466335335464 0.0 0.7857403647408512 0.10691625211380024 0.0 0.6205801462081965 0.11099161050911327 0.0 0.3534152091701076 0.0014349512531314846 0.0 0.09359665234774334 0.003863777935719399 0.0 0.36526382866517165 -0.020671479840705446 0.0 1.0720019442181787 0.07670834223565001 0.0 0.0 0.0 0.0 0.5198014986680031 0.011409697849337113 0.0 0.9316174484292457 0.02916306506742874 0.0 -0.1094032541115352 0.000628353526380802 0.0 1.0970587862454553 0.26705072637642063 0.0 0.900336571829792 0.11240978488297321 0.0 1.2805369995667555 -0.04965152146622068 0.0 0.18676969176740785 -0.003597323105161865 0.0 0.35868129847652874 0.017802599083082057 0.0 0.14302048286378416 0.00019789889882899922 0.0 1.3027822510608982 0.039195735600423595 0.0 -0.10617636392401514 -0.0015173545492584881 0.0 -0.07757531834342275 -0.006441311812783274 0.0 -0.0978256689012127 -0.004496001675091356 0.0 -0.04347333396650193 0.0070204663742767775 0.0 -0.09546305370374832 0.001059535290338526 0.0 -0.11585790139481929 7.254474276318927e-05 0.0 -0.06695386454786975 -0.001996781885169714 0.0 -0.04125141763345099 0.0034362239779839364 0.0 -0.11971970289317548 -0.002001655328389256 0.0 0.07552529406668876 -0.0020410927795010856 0.0 -0.038724758356493506 0.0056714699714592 0.0 -0.123045863111985 -0.0011044148036321352 0.0 -0.1217291221040348 -0.0007221217773166916 0.0 -0.023568441386110958 -0.0024524766277684656 0.0 0.0 0.0 0.0 0.9464463370476449 0.25548290394234185 0.0 0.9513526578778957 0.04010879522973777 0.0 0.22516632500856906 -0.004458593901983673 0.0 0.3087089270781465 -0.0044436141111234536 0.0 0.5441728044903041 0.020914926653819704 0.0 0.9120089753746942 0.04293855392342873 0.0 1.1918068793593353 0.034498027067796484 0.0 1.353730424426459 0.014564745065215299 0.0 0.08792663853727883 0.002256811826099255 0.0 -0.03575116801972809 7.29889992865155e-05 0.0 0.022908588561875196 -0.01174753537925146 0.0 0.13568396208630512 -0.008813513623509676 0.0 0.12586962735473553 -0.01390453016127495 0.0 0.31584057368001445 -0.023402273361359704 0.0 0.5756443092766315 -0.051152331804743316 0.0 0.8598714010067647 -0.05263123823215368 0.0 0.3671315344026704 -0.031934580905299666 0.0 0.555606597698141 -0.036013805840922536 0.0 0.6509159983210331 -0.04797848462383076 0.0 0.7705598391291139 -0.04124080256576587 0.0 0.2594942408104517 -0.028423309979295812 0.0 1.2730114813068596 -0.0648047018517778 0.0 1.0588949766677846 -0.05201796988154108 0.0 1.286733756563473 -0.029226607911241324 0.0 1.0493636071859636 -0.039882049383567805 0.0 -0.04265561987529842 -0.008916979666316358 0.0 1.0274781737538108 -0.06722849104078368 0.0 1.0604886755828888 -0.03022035546301962 0.0 1.2256560333629398 -0.10307293965388115 0.0 -0.10880398009645148 -0.0023136192911917017 0.0 0.4608064836037529 -0.04590027557322961 0.0 1.2511616438158448 -0.10574433868292415 0.0 0.131881806095071 -0.021923761185540624 0.0 -0.12206667879810235 -0.0008574871727863926 0.0 1.261667885645312 -0.08757923771465426 0.0 0.06338846500245698 -0.02134948396491813 0.0 -0.11149906474911497 -0.002588670626447696 0.0 -0.0266218329577541 0.009941861475590142 0.0 0.045893323905393496 -0.017893686714801505 0.0 -0.06761886935767006 -0.008211520423979317 0.0 0.41895581384411545 -0.04925877282714823 0.0 -0.0475638452772871 -0.01106015471205814 0.0 0.11198532861916788 0.029397348658193673 0.0 -0.08262639429614821 0.0055981417081017466 0.0 -0.07286170003625346 -0.00674940564358615 0.0 -0.09963121562914966 0.00040500988980326743 0.0 0.03899629264554086 0.017051899610959508 0.0 1.2167177037815153 0.10295561746145698 0.0 0.327063886120792 0.03731204908966592 0.0 0.304784395132484 -0.04519861298067112 0.0 0.2560668893812595 -0.010265611497597473 0.0 0.7084995082557721 -0.020721536618475183 0.0 0.30610990797370424 0.005619979190905294 0.0 1.1763507877541737 0.05289177634918492 0.0 0.8885260873288139 0.06089330848696809 0.0 0.9295452466571941 -0.08305540353145052 0.0 -0.04790670191752891 -0.00412398470407646 0.0 -0.058687492307699145 -0.0037330787038310077 0.0 -0.11904980547999659 -0.001512371583650442 0.0 -0.045972657447445095 0.004080790929481581 0.0 -0.07946761159085357 -0.004259156064617089 0.0 0.326244778517395 -0.038788257105901405 0.0 1.2582999864547944 -0.093721386119558 0.0 0.6265235736541731 -0.06189013793357433 0.0 0.893968838349631 -0.08617556452733535 0.0 -0.02926507960243377 0.012505597184435729 0.0 0.06093731395307806 -0.023398754717553163 0.0 -0.007655613747067643 -0.01583317108686176 0.0 0.2083711369541807 -0.039305145163267004 0.0 -0.016508436082575982 -0.015198825881385224 0.0 1.2533191738147298 0.1059196303599998 0.0 -0.06699775366690537 -0.0017977387647660505 0.0 -0.01500183743652968 0.009584913908597158 0.0 -0.05166312524515101 -0.0008783155824259397 0.0 0.054124985770270306 -0.022929129444543752 0.0 0.33688192689594254 0.024581718649411513 0.0 0.6884250564006115 -0.07037181492626861 0.0 0.5076555554470676 -0.06016481953839474 0.0 0.7873170986576233 -0.06854172848361648 0.0 0.26486452584598374 -0.038706366531921374 0.0 0.8193585119621012 -0.08806938573303429 0.0 1.1666363944793265 -0.09126197050249783 0.0 1.0677882203702376 -0.08385465685652167 0.0 1.0410622539481296 -0.07533992836455312 0.0 0.5923012165232852 -0.06990644038374594 0.0 0.5036674884983788 -0.06506458161315679 0.0 0.3905718698365336 -0.05824213348563147 0.0 0.3661265164112548 -0.054803390354198185 0.0 0.14406702632748863 -0.03388012422725115 0.0 0.7867207833025822 -0.08880162024534188 0.0 0.2593571753918404 0.014704102536563091 0.0 0.606427920124508 0.037779112176932195 0.0 0.06664950104394837 0.006015059969389814 0.0 0.17108582251152327 0.0177673618753129 0.0 -0.07059745891055631 0.00030418504632075187 0.0 1.3326737126467165 -0.024471169637829058 0.0 1.2179424190245178 0.04107778397188624 0.0 1.355183420653737 -0.012151144680789457 0.0 1.326652980978667 -0.06328116867668238 0.0 0.16873883911930282 -0.036940440437580525 0.0 0.35638484017115263 -0.05573768892030309 0.0 0.5582151502081261 0.04668996127155011 0.0 0.08669658873750222 0.015489192563838442 0.0 1.3081993972720491 0.004004102514968297 0.0 1.3482406818277224 -0.033066322053444244 0.0 0.5169307225854614 0.06784223043436458 0.0 1.3270690503803926 -0.07678404723604942 0.0 0.5881762224142597 0.04319838860558326 0.0 1.2822428565646213 0.07183868540315182 0.0 0.33218472006388067 0.033506139359978926 0.0 0.7034901150628146 0.063641431366376 0.0 1.3346826165830732 0.02407675825913624 0.0 1.2312003456800835 -0.024262575819305483 0.0 1.317717184902539 -0.08681761204559803 0.0 0.8244084034112683 0.06125877990105437 0.0 1.0472953600193944 0.07883151486980461 0.0 1.106553132413371 0.07224166043534151 0.0 1.2666009730152514 0.09838034410778833 0.0 1.1280852346108279 0.09710896069584676 0.0 0.9742658102474951 0.08111593925475646 0.0 0.6680711223031045 0.06714037682596086 0.0 1.2732357084929642 -0.09007497019743835 0.0 0.0 0.0 0.0 1.3079671225863265 0.057740920835069216 0.0 0.9162538731441258 0.08930551057268994 0.0 0.3246278798362784 0.041756577768015224 0.0 1.3158947690081593 0.07154014081711953 0.0 0.8986899669824858 0.0851312081070047 0.0 1.2704805884239072 0.09116681514369081 0.0 0.5973626760611256 0.06597533667725451 0.0 1.2617188860709811 0.10344225854165137 0.0 0.5483528036333128 0.06766939388558246 0.0 0.2551714892486269 0.03986372957411991 0.0 1.1461710610378097 0.10136253485059106 0.0 0.6605887537596767 0.07440556727316619 0.0 1.0718738862613006 0.10305984613392667 0.0 0.8438268138293828 0.0901265165661103 0.0 0.7749304210122462 0.08814551080925676 0.0 1.195243552195203 0.08857607926418858 0.0 1.115592757173479 0.09170324183170371 0.0 1.3062247261408224 0.08180859561525188 0.0 0.15513082232817 0.028577928013766452 0.0 1.1523102056192884 0.07903049991361336 0.0 1.2161677047697954 0.10627731252521674 0.0 1.1569599572452363 0.10718222025349894 0.0 1.2337701985256606 0.1070156481358393 0.0 1.2436586910622915 0.10803108842676065 0.0 1.2911998755178455 0.08698495752367619 0.0 1.1832982089872246 0.06839160549738278 0.0 0.9445750777779743 0.10080747013594517 0.0 1.2293938039790824 0.09244622916390553 0.0 1.279043864534465 0.09059060993881343 0.0 1.0452846532688107 0.06522799339754089 0.0 1.1622299959195197 0.1092202554486994 0.0 1.0792193937991184 0.1076226588849753 0.0 1.0592359090230485 0.1057049007898288 0.0 1.2325498547202913 0.09677587915186621 0.0 0.0 0.0 0.0 0.6445068097295108 -0.005548920275223558 0.0 1.0778586623274844 0.43428305176603543 0.0 1.1669343770480318 0.4222972123856501 0.0 1.082230707793541 -0.4267320989988645 0.0 0.8655775865623858 -0.22699534494112175 0.0 0.9788516335732332 -0.2554812619807974 0.0 0.8923668873465121 -0.08497950950907306 0.0 1.2227197586059748 -0.05228810366984542 0.0 1.081314641314926 -0.06399710629690052 0.0 1.1987004972874253 -0.10446830444977366 0.0 1.26511635075446 -0.0845604958488151 0.0 1.3153174411837953 -0.05373967034909258 0.0 -0.08332906893894852 -0.0023964840187013885 0.0 -0.05032100596266344 0.00775621390081197 0.0 0.0009440157212547337 0.010067121494864871 0.0 0.0007629785820710638 0.012119889716897784 0.0 0.14709419516467764 0.026900703052089952 0.0 -0.05718890283035003 0.008323581294948422 0.0 0.06134728063998276 0.02198326743870948 0.0 0.217321655492798 0.03717149281984829 0.0 0.08497844486526049 0.03828633569692212 0.0 -0.03618168245146258 0.015162178966097518 0.0 1.0348686439397898 0.1607720970836008 0.0 -0.07032669304945498 0.0046144498518512 0.0 1.2550063514388954 -0.10077754003098723 0.0 1.1426132984612516 -0.09844575299880398 0.0 0.9517136103023234 -0.09277702368393628 0.0 1.1047732409635616 -0.10243872899497286 0.0 1.2394634003543075 -0.10662946807316927 0.0 0.9142473211972953 -0.095823317809167 0.0 1.2472310347171685 -0.10690450467243326 0.0 1.0785937153607905 -0.10527129987682964 0.0 1.1337535563138395 -0.10518753380149427 0.0 0.8647458691188314 -0.09538055294924282 0.0 0.9084123019622526 -0.09774953217003934 0.0 0.6276385543976414 -0.07845836061444293 0.0 1.1048641127183956 -0.10776758536999248 0.0 1.232981726300005 -0.10627917376093081 0.0 1.0692575841731533 -0.10552382735435206 0.0 1.1676875285732222 -0.08586370571710326 0.0 1.193159176377015 -0.10868942529422963 0.0 0.6830468812444992 -0.08248744801443166 0.0 1.1408566553842598 -0.10575836847685109 0.0 0.9396535522237748 -0.09897949696343189