<?xml version="1.0"?>
<VTKFile type="UnstructuredGrid"  version="0.1"  >
<UnstructuredGrid>
<Piece  NumberOfPoints="1289" NumberOfCells="2413">
<Points>
<DataArray  type="Float64"  NumberOfComponents="3"  format="ascii">0 0 0  0 0.41 0  2.2 0.41 0  2.2 0 0  0.1 0.1 0  0.1 0.3 0  0.8 0.3 0  0.8 0.1 0  0.25 0.2 0  0.248976 0.210065 0  0.245948 0.219718 0  0.241038 0.228563 0  0.234448 0.23624 0  0.226448 0.242432 0  0.217365 0.246888 0  0.207571 0.249423 0  0.197468 0.249936 0  0.187467 0.248404 0  0.17798 0.24489 0  0.169395 0.239539 0  0.162062 0.232569 0  0.156283 0.224265 0  0.152293 0.214968 0  0.150257 0.205058 0  0.150257 0.194942 0  0.152293 0.185032 0  0.156283 0.175735 0  0.162062 0.167431 0  0.169395 0.160461 0  0.17798 0.15511 0  0.187467 0.151596 0  0.197468 0.150064 0  0.207571 0.150577 0  0.217365 0.153112 0  0.226448 0.157568 0  0.234448 0.16376 0  0.241038 0.171437 0  0.245948 0.180282 0  0.248976 0.189935 0  1.1 0 0  1.1 0.41 0  0.1 0.2 0  0.45 0.1 0  0.45 0.3 0  0.55 0 0  0.275 0.1 0  0.275 0.3 0  0.275 0 0  0.55 0.41 0  0 0.205 0  0.825 0 0  0.825 0.41 0  0.275 0.41 0  0.1 0.15 0  0.1875 0.1 0  0.1 0.25 0  0.1875 0.3 0  0.132322 0.2 0  0.241426 0.253518 0  0.241426 0.146482 0  0.264574 0.17974 0  0.264574 0.22026 0  0.138434 0.187348 0  0.153372 0.150948 0  0.148413 0.164094 0  0.176495 0.136535 0  0.22768 0.143571 0  0.138434 0.212652 0  0.148413 0.235906 0  0.176495 0.263465 0  0.22768 0.256429 0  0.23125 0.3 0  0.24769 0.24094 0  0.23125 0.1 0  0.24769 0.15906 0  0.26253 0.193641 0  0.190482 0.137872 0  0.166753 0.146661 0  0.157737 0.244461 0  0.190482 0.262128 0  0.203107 0.261264 0  0.253635 0.22977 0  0.203107 0.138736 0  0.253635 0.17023 0  0.261028 0.206206 0  0.167707 0.251809 0  0.143629 0.224191 0  0.215302 0.2591 0  0.270465 0.245894 0  0.215302 0.1409 0  0.270465 0.154106 0  0.284052 0.202587 0  0.14375 0.3 0  0.209375 0.3 0  0.225966 0.278501 0  0.209375 0.1 0  0.225966 0.121499 0  0.211613 0.273759 0  0.211613 0.126241 0  0.143629 0.175809 0  0.1 0.175 0  0.133484 0.164832 0  0.144491 0.249539 0  0.1 0.225 0  0.133484 0.235168 0  0.3625 0.3 0  0.25691 0.253381 0  0.25691 0.146619 0  0.277205 0.188698 0  0.184724 0.275712 0  0.237372 0.268285 0  0.184724 0.124288 0  0.237372 0.131715 0  0.197578 0.273149 0  0.193656 0.286994 0  0.197578 0.126851 0  0.193656 0.113006 0  0.122953 0.187671 0  0.118362 0.153758 0  0.155372 0.258107 0  0.122953 0.212329 0  0.118362 0.246242 0  0.276394 0.27264 0  0.276394 0.12736 0  0.280965 0.170013 0  0.253125 0.3 0  0.14375 0.1 0  0.253125 0.1 0  0.269489 0.26014 0  0.269489 0.13986 0  0.303639 0.184297 0  0.165625 0.3 0  0.134742 0.273113 0  0.257831 0.274737 0  0.255279 0.128499 0  0.3625 0.1 0  0.165625 0.1 0  0.162031 0.132368 0  0.134955 0.126405 0  0.149334 0.125568 0  0.142936 0.139597 0  0.12695 0.140259 0  0.242514 0.285501 0  0.242514 0.114499 0  0.1 0.125 0  0.117483 0.12555 0  0.11154 0.139776 0  0.121875 0.1 0  0.109143 0.1125 0  0.126805 0.114 0  0.220313 0.29129 0  0.351562 0.287369 0  0.207222 0.2866 0  0.220312 0.10871 0  0.1375 0 0  0.20625 0 0  0.207222 0.1134 0  0.11722 0.17118 0  0.1 0.1625 0  0.0778409 0.16875 0  0.0862762 0.15625 0  0 0.15375 0  0 0.1025 0  0.11722 0.22882 0  0.1 0.2375 0  0 0.3075 0  0.0862762 0.23125 0  0.0598995 0.222547 0  0.0860223 0.2125 0  0.289584 0.181469 0  0.300267 0.16446 0  0.163832 0.269071 0  0.149597 0.273325 0  0.1 0.275 0  0.268498 0.285953 0  0.31875 0.3 0  0.294154 0.254672 0  0.296875 0.3 0  0.293558 0.271845 0  0.285095 0.286799 0  0.324298 0.264316 0  0.307866 0.263745 0  0.317093 0.234901 0  0.315485 0.281219 0  0.316547 0.250625 0  0.344693 0.243731 0  0.331592 0.251147 0  0.35129 0.270663 0  0.338689 0.263683 0  0.340625 0.3 0  0.249849 0.264383 0  0.265097 0.11422 0  0.284688 0.156136 0  0.242188 0.324017 0  0.0856613 0.2625 0  0.132812 0.0612217 0  0.264062 0.0612217 0  0.198437 0.07598340000000001 0  0.0860223 0.1375 0  0.0794526 0.191089 0  0.285228 0.140397 0  0.298655 0.148737 0  0.31875 0.1 0  0.327335 0.15374 0  0.296875 0.1 0  0.312289 0.155283 0  0.313348 0.135607 0  0.321802 0.173916 0  0.298433 0.134116 0  0.112124 0.2625 0  0.127526 0.259083 0  0.121875 0.3 0  0.0682687 0.241503 0  0.1 0.2875 0  0.117762 0.28125 0  0.107813 0.3 0  0.103906 0.313849 0  0.0778409 0.28125 0  0.1375 0.41 0  0.0862762 0.29375 0  0.08886860000000001 0.24375 0  0.307812 0.338778 0  0.307812 0.292227 0  0.33216 0.279164 0  0.387888 0.266414 0  0.264063 0.31948 0  0.110937 0.07598340000000001 0  0.242188 0.07598340000000001 0  0.319914 0.11839 0  0.340625 0.1 0  0.334448 0.133793 0  0.329687 0.108539 0  0.346259 0.118491 0  0.360334 0.173636 0  0.327539 0.205033 0  0.132812 0.288712 0  0.362436 0.278836 0  0.368105 0.259418 0  0.4125 0.41 0  0.329687 0.324017 0  0.329687 0.292306 0  0.285938 0.318952 0  0.417187 0.338778 0  0.324481 0.14148 0  0.351562 0.106771 0  0.40625 0.1 0  0.341028 0.168342 0  0.319221 0.190479 0  0.335292 0.184501 0  0.305563 0.20794 0  0.220313 0.31948 0  0.132812 0.332772 0  0.0865876 0.311259 0  0.0598995 0.302453 0  0.0906541 0.343255 0  0.353543 0.255837 0  0.36574 0.237633 0  0.405007 0.254279 0  0.275795 0.352123 0  0.4125 0 0  0.35493 0.137394 0  0.366563 0.120618 0  0.35917 0.205246 0  0.198438 0.318952 0  0.0626109 0.263892 0  0.40625 0.3 0  0.354809 0.155936 0  0.386512 0.146872 0  0.373101 0.159939 0  0.384375 0.1 0  0.343394 0.19929 0  0.350682 0.185683 0  0.368101 0.189748 0  0.344016 0.221511 0  0.391108 0.213329 0  0.376279 0.204783 0  0.398843 0.182768 0  0.375804 0.222746 0  0.390665 0.196958 0  0.394004 0.23518 0  0.359883 0.222828 0  0.419908 0.204359 0  0.404243 0.204783 0  0.412615 0.224526 0  0.20625 0.41 0  0.165625 0.325257 0  0.0347982 0.244954 0  0.379558 0.247154 0  0.34165 0.147603 0  0.372264 0.136992 0  0.388988 0.121989 0  0.373437 0.108554 0  0.351562 0.31948 0  0.391367 0.16527 0  0.399572 0.223324 0  0.452011 0.227371 0  0.40877 0.239392 0  0.431491 0.237337 0  0.421224 0.250459 0  0.449619 0.262098 0  0.418865 0.276779 0  0.437063 0.252274 0  0.415673 0.263227 0  0.430988 0.266772 0  0.402767 0.273419 0  0.452967 0.244883 0  0.428125 0.3 0  0.408502 0.286186 0  0.384375 0.3 0  0.392267 0.285807 0  0.465927 0.219339 0  0.43489 0.283846 0  0.376424 0.286289 0  0.625 0.3 0  0.473533 0.205186 0  0.461713 0.255517 0  0.5375 0.3 0  0.465725 0.235405 0  0.44631 0.201425 0  0.471875 0.3 0  0.494307 0.227729 0  0.459448 0.206736 0  0.462294 0.180792 0  0.478933 0.227536 0  0.486793 0.21381 0  0.486322 0.251373 0  0.50065 0.215318 0  0.54005 0.175389 0  0.474633 0.189893 0  0.512916 0.208697 0  0.49531 0.199967 0  0.475889 0.175275 0  0.625 0.1 0  0.459311 0.153933 0  0.513645 0.242704 0  0.392892 0.248539 0  0.374815 0.271913 0  0.365974 0.14871 0  0.395312 0.109184 0  0.417061 0.123981 0  0.483196 0.277003 0  0.381967 0.179632 0  0.429898 0.219374 0  0.433473 0.206165 0  0.43149 0.181038 0  0.444208 0.215487 0  0.472985 0.247309 0  0.49375 0.3 0  0.475579 0.262714 0  0.49916 0.274293 0  0.501175 0.184809 0  0.514164 0.225681 0  0.543648 0.214977 0  0.5341630000000001 0.23481 0  0.527396 0.216171 0  0.5375 0.1 0  0.534548 0.202315 0  0.561545 0.192513 0  0.5494289999999999 0.201221 0  0.570923 0.218346 0  0.412582 0.149833 0  0.489327 0.264745 0  0.502439 0.254775 0  0.462391 0.271166 0  0.496775 0.241732 0  0.5294410000000001 0.268606 0  0.482812 0.291099 0  0.46879 0.285038 0  0.452663 0.284065 0  0.51789 0.257882 0  0.53408 0.252026 0  0.560142 0.243543 0  0.545708 0.243474 0  0.547532 0.229019 0  0.55282 0.265323 0  0.398971 0.153424 0  0.400349 0.135684 0  0.410135 0.168145 0  0.428823 0.161323 0  0.415266 0.183779 0  0.329687 0.0810483 0  0.395312 0.0612217 0  0.373437 0.318952 0  0.439062 0.324017 0  0.561816 0.229354 0  0.585029 0.239287 0  0.431827 0.139854 0  0.446796 0.168929 0  0.351562 0.07598340000000001 0  0.395313 0.318944 0  0.54337 0.150762 0  0.460937 0.31948 0  0.418412 0.137529 0  0.428125 0.1 0  0.442783 0.152332 0  0.450742 0.134294 0  0.373437 0.0805201 0  0.384383 0.342558 0  0.482812 0.318952 0  0.429239 0.127457 0  0.444274 0.117405 0  0.426548 0.113815 0  0.49375 0.1 0  0.488954 0.113984 0  0.457973 0.121842 0  0.471621 0.137346 0  0.515625 0.325257 0  0.48125 0.41 0  0.417187 0.07598340000000001 0  0.496363 0.126778 0  0.479043 0.155715 0  0.439062 0.0805201 0  0.481795 0.126919 0  0.471875 0.1 0  0.489227 0.142159 0  0.515625 0.1 0  0.520062 0.147117 0  0.501244 0.161791 0  0.505431 0.112984 0  0.505344 0.14029 0  0.526563 0.119081 0  0.5181750000000001 0.131908 0  0.539868 0.136937 0  0.460937 0.108383 0  0.474242 0.114415 0  0.460937 0.0810483 0  0.487841 0.167168 0  0.526563 0.0612217 0  0.526563 0.106406 0  0.537619 0.112743 0  0.58125 0.1 0  0.559375 0.1 0  0.482812 0.08105569999999999 0  0.471883 0.0587655 0  0.570312 0.129396 0  0.548437 0.07598340000000001 0  0.504687 0.08105569999999999 0  0.49375 0.0470127 0  0.570312 0.112663 0  0.592798 0.12103 0  0.553986 0.12103 0  0.570312 0.0805201 0  0.48125 0 0  0.114787 0.2 0  0.160769 0.284765 0  0.175816 0.288361 0  0.162602 0.116048 0  0.154687 0.07598340000000001 0  0.176562 0.0805201 0  0.0598995 0.147547 0  0.307812 0.109924 0  0.291279 0.117157 0  0.278491 0.112989 0  0.285937 0.07598340000000001 0  0.307812 0.0805201 0  0.296928 0.196743 0  0.318141 0.218507 0  0.330208 0.227509 0  0.301397 0.225668 0  0.302706 0.241401 0  0.292574 0.21424 0  0.282762 0.230935 0  0.284351 0.244775 0  0.269553 0.23261 0  0.278572 0.217242 0  0.226924 0.342606 0  0.446928 0.185396 0  0.515625 0.3 0  0.504687 0.288879 0  0.515256 0.276534 0  0.529479 0.285328 0  0.58125 0.3 0  0.541969 0.272936 0  0.559375 0.3 0  0.556796 0.282529 0  0.543473 0.287206 0  0.581429 0.267774 0  0.566728 0.271171 0  0.570869 0.255585 0  0.577404 0.283865 0  0.603125 0.3 0  0.597531 0.28035 0  0.570312 0.338778 0  0.592188 0.292492 0  0.603513 0.256094 0  0.614063 0.286265 0  0.610329 0.27064 0  0.632708 0.251285 0  0.657223 0.261594 0  0.618789 0.257807 0  0.614188 0.22987 0  0.630935 0.265614 
[...]
<PointData  Vectors="v"> 
	<DataArray  type="Float64"  Name="v"  NumberOfComponents="3" format="ascii">
0.0 0.0 0.0 0.0 0.0 0.0 0.0 0.0 0.0 0.0 0.0 0.0 0.7962195601845935 -0.1959664375784911 0.0 0.8404197830876005 0.20778167319566745 0.0 1.1710896378112108 -0.06184974050747282 0.0 1.1343657753140775 0.053259121891210744 0.0 0.0 0.0 0.0 0.0 0.0 0.0 0.0 0.0 0.0 0.0 0.0 0.0 0.0008557946642273958 0.0007941918032949517 0.0 0.00016060545210066195 0.00014215764019313065 0.0 0.00043730173463848537 0.0007695641163120158 0.0 0.0 0.0 0.0 0.0 0.0 0.0 0.0 0.0 0.0 0.0 0.0 0.0 0.0 0.0 0.0 0.0 0.0 0.0 0.0 0.0 0.0 0.0 0.0 0.0 0.0 0.0 0.0 0.0 0.0 0.0 0.0 0.0 0.0 0.0 0.0 0.0 0.0 0.0 0.0 0.0 0.0 0.0 0.0 0.0 0.0 0.0 0.0 0.0 0.0 0.0 0.0 0.0 0.0 0.0 0.0005860628919373351 -0.0010183682923292742 0.0 0.0006704845778403803 -0.001026316239843819 0.0 0.0008500894916248493 -0.0007966300573812965 0.0 0.0 0.0 0.0 0.0 0.0 0.0 0.0 0.0 0.0 0.0 0.0 0.0 0.0 0.0 0.0 0.7613293723138629 -0.0012505222086958492 0.0 1.2757957649814498 0.0828618959915335 0.0 1.2660486469307966 -0.0774977215774102 0.0 0.0 0.0 0.0 1.353617520296716 -0.13308012512463321 0.0 1.3581973418091227 0.15477187012017837 0.0 0.0 0.0 0.0 0.0 0.0 0.0 1.0 0.0 0.0 0.0 0.0 0.0 0.0 0.0 0.0 0.0 0.0 0.0 0.8425840523446968 -0.23185901425308858 0.0 1.1513577016220562 -0.34434645465607283 0.0 0.8637938712750225 0.2293326578065484 0.0 1.1663203551666612 0.3540654009338967 0.0 0.428236472636808 -0.003934411122061555 0.0 0.1652376520460431 0.062439334184617376 0.0 0.16985121610252338 -0.06092134999855183 0.0 -0.027666741200135174 -0.03835265995933423 0.0 -0.02591484455706403 0.03647457209443361 0.0 0.33437138347946055 -0.27980527500525004 0.0 0.8578647128020377 -0.6734367048956317 0.0 0.6399712655845899 -0.6881181837914194 0.0 1.2060926258451032 -0.6132857419606766 0.0 0.4155301251255189 -0.06936055971733193 0.0 0.3304557760487264 0.2687866233090418 0.0 0.6428574905017301 0.6693605586561346 0.0 1.1852092892836918 0.6153941821242999 0.0 0.4079409106954683 0.07127723010257157 0.0 1.3132594724251248 0.26083082483118775 0.0 0.3240915491888513 0.25254182943368053 0.0 1.3025984257843626 -0.24058811567785873 0.0 0.3159195094562268 -0.24041184651908423 0.0 -0.03360248646680573 -0.01692841929982009 0.0 1.1248049268235756 -0.3987353425305914 0.0 1.093150709423806 -0.7243152543584798 0.0 0.8520975014238845 0.7707805733846762 0.0 1.1314879487064748 0.39957271460206145 0.0 0.7595117805366561 0.1860290477907867 0.0 0.10892486611094314 0.05158072823877771 0.0 0.7692602338990311 -0.1818757340826051 0.0 0.11139751093242328 -0.05009414520340248 0.0 -0.0296113892964073 0.019213992560493196 0.0 1.0275661645001368 0.7189148735074872 0.0 0.4424012607178073 0.5292369710933867 0.0 0.4580639055732936 0.1776324267073209 0.0 0.2719601773334291 0.0691699869395952 0.0 0.46401003680824515 -0.17362655132234855 0.0 0.2780531324761922 -0.06484184909881206 0.0 -0.07525747662299415 0.002375487420568353 0.0 0.9655053994513978 0.31741629103919794 0.0 1.2605995895090314 0.3131388680992305 0.0 1.2453019843305317 0.28878487023061306 0.0 1.23478480723949 -0.3077005089912342 0.0 1.2476492197004905 -0.2810708720868859 0.0 1.2203419328954546 0.33101318860560935 0.0 1.225976333936817 -0.32264998784912846 0.0 0.4428701492855172 -0.5445315034255299 0.0 0.8020107852386149 -0.13959461075320365 0.0 0.6714934139160019 -0.4196633268569192 0.0 0.8774009158353643 0.593875544529096 0.0 0.7993131599387169 0.14283939867703627 0.0 0.6765121303506736 0.4201887471057813 0.0 1.2927281725403328 -0.007260889010861199 0.0 0.29361184342534646 0.14453833156776072 0.0 0.29500609019783797 -0.13484777215393862 0.0 -0.054509171892354345 -0.012840802186780896 0.0 1.2651334128352503 0.471806093521915 0.0 0.7687618569643234 0.12072523123435527 0.0 1.2610628993396371 -0.4732927822400967 0.0 0.7890098071151187 -0.11566012489952017 0.0 1.27570264954646 0.4180555368362103 0.0 1.254061619388416 0.40110544540296905 0.0 1.2714874801752105 -0.4142400628976415 0.0 1.2446367976144406 -0.38113733956828694 0.0 0.5835208014838728 -0.16048713491710606 0.0 0.7964186546171732 -0.33177575102881646 0.0 1.0104760270402773 0.6038240942832926 0.0 0.5917584758116043 0.1506494966323201 0.0 0.812578256967882 0.3317380005798712 0.0 0.7460909193434111 0.08079338830046556 0.0 0.7824678554424871 -0.07315058634157176 0.0 0.0523622135832538 -0.02193182896497917 0.0 1.3634477974896633 0.2073759477233632 0.0 0.9297945106440902 -0.32221556853612104 0.0 1.344533344171256 -0.19013582177752822 0.0 0.4096663211875786 0.090882066789266 0.0 0.4272774296301495 -0.07850189213833213 0.0 -0.05461571288206527 -0.008074203464360292 0.0 1.0573955280454694 0.3539971911044143 0.0 0.9431879308516951 0.39149523107617046 0.0 0.922332924387638 0.11231686722078263 0.0 0.8240948025215181 -0.08692418562480532 0.0 1.3068685491645573 0.016600629860345523 0.0 1.027473478430333 -0.34519455687817807 0.0 1.0744470958999612 -0.570309897723027 0.0 0.9301044616040388 -0.3893730519639013 0.0 0.9974309786452754 -0.43863414838779924 0.0 0.9328981720128616 -0.5428007081302338 0.0 0.865508758777157 -0.40646973663100167 0.0 1.2735182652623855 0.23281559500686047 0.0 1.27139159660901 -0.2196593437061962 0.0 0.8526417233308379 -0.23560533566817116 0.0 0.8790295187730084 -0.3099281096793065 0.0 0.8528782021117937 -0.2990160169273348 0.0 0.8513874990025991 -0.25638446702412854 0.0 0.8541937822732613 -0.2527581275182811 0.0 0.8962495930515969 -0.3194462850320824 0.0 1.3292922355376926 0.3155236539371728 0.0 1.0846899878080165 -0.0025163896791634234 0.0 1.3146668946201716 0.3623165573285694 0.0 1.3212690426468008 -0.29611835473505926 0.0 0.0 0.0 0.0 0.0 0.0 0.0 1.299359370571975 -0.3495015236165417 0.0 0.7142331673991413 -0.267278008772898 0.0 0.8203815820384975 -0.2107302446509343 0.0 0.8711672923823237 -0.11072394027768076 0.0 0.862433424977793 -0.1637363036816974 0.0 0.9375 0.0 0.0 0.7500000000000001 0.0 0.0 0.7224859934882747 0.2653463287993323 0.0 0.8240489915961384 0.20018130318659236 0.0 0.7499999999999999 0.0 0.0 0.8697240232755713 0.1278580448283556 0.0 0.9287154078251212 0.04286209419564814 0.0 0.848114515584242 0.0451045582244827 0.0 -0.034950931853622504 -0.01146747691845521 0.0 0.09166459906402508 -0.017460951645404114 0.0 1.1150667070421851 0.5547949115159115 0.0 1.0190532171950721 0.47316774082131885 0.0 0.8809869957485393 0.2455022892714314 0.0 1.200195175731462 0.13899688439691063 0.0 1.3288793045910055 0.05975059005818338 0.0 0.35254261057972436 0.038018735118526575 0.0 1.356163072368305 0.10281846965565536 0.0 0.7142367841291042 0.053708879267693965 0.0 1.1712976780078295 0.10016981377100048 0.0 0.5150515697795658 0.015752876446789056 0.0 0.49668080823571054 0.029987426862392322 0.0 0.07014546919561168 0.013286258641658295 0.0 0.9568746805392524 0.034456646260800874 0.0 0.25768038025438506 0.022065411698127226 0.0 0.16374371567483503 0.008350531608951436 0.0 0.26818491566479924 0.014492809282740608 0.0 0.6669897517145565 -0.004927351150639186 0.0 0.49880432928496155 0.006889466570804168 0.0 1.315754133693147 0.01924649625568232 0.0 0.5425067031792772 0.062167466927350874 0.0 1.2300646251429925 -0.14212078192545807 0.0 0.20255895913121064 -0.037555782424365046 0.0 1.2057777001647818 0.17349073902508583 0.0 0.8828343982179566 0.17977252825171797 0.0 0.7010988509278306 -0.1679484418911591 0.0 1.1155810341381416 -0.09427166506614262 0.0 1.0385116303072568 -0.22378257344393704 0.0 0.86374133244335 -0.18262397293595564 0.0 0.8754189088604171 -0.025559902244210023 0.0 0.4398055455366727 -0.048228984102997474 0.0 0.2908908572111495 -0.033100654495626144 0.0 1.328953440547609 -0.04197625249526771 0.0 0.20870117025116608 -0.01352832372174522 0.0 1.355429317487819 -0.08645147243146872 0.0 0.19176609155271118 -0.019056020741767602 0.0 0.5357030023210977 -0.015801098779648623 0.0 -0.0015188330082790266 -0.01123088811313391 0.0 0.5723609349310839 -0.03158353900973906 0.0 0.8789118210921395 0.2971896378020813 0.0 0.8795865817396263 0.41080854357290286 0.0 0.885114841042925 0.27035357846580077 0.0 0.9122248033871974 0.10987953958395841 0.0 0.8651938682556604 0.2233198407551475 0.0 0.9047502162405716 0.3037467950247622 0.0 0.8572550669708524 0.2335428331877503 0.0 0.8020419562864092 0.1833978927298672 0.0 0.867065102637689 0.16155567897096373 0.0 0.0 0.0 0.0 0.8415297229045939 0.17671749635399442 0.0 0.8706655850557988 0.1710602681630238 0.0 1.2130552739459957 0.04971646543109451 0.0 1.237695769492824 0.06489469198940168 0.0 0.8904689499928029 0.013144504222464812 0.0 0.5943557684032206 -0.026100337666343478 0.0 1.2798363928100598 0.14701547815240568 0.0 0.7176006280191516 -0.17371048161742475 0.0 1.1779921221097696 -0.16460872239322422 0.0 0.9985401655868322 -0.01989494329715795 0.0 1.3236045917030008 -0.007790830850291929 0.0 0.585547013542802 -0.0002530136600431917 0.0 1.2204026814198632 -0.012670783033134177 0.0 0.9834283895668032 0.009125822115126735 0.0 -0.0045013288288141655 -0.0071497535560044075 0.0 -0.0962207286172326 0.0010013805512704287 0.0 0.9448861268695786 0.34124795971366456 0.0 0.8779939964710076 -0.018519633079850256 0.0 0.42791178426587567 -0.008317199091263147 0.0 0.0 0.0 0.0 1.3285602103202485 0.037444391351723276 0.0 1.2126916589532961 0.024875650315012175 0.0 1.3171835644817158 0.11452367143112599 0.0 1.2522558181089067 -0.04437104013500787 0.0 0.4137266963248021 -0.013880855900860632 0.0 1.2283255329819036 0.010441661820792498 0.0 1.291308277379038 0.05686079561116974 0.0 0.04110781274897279 -0.009901068352746515 0.0 -0.0825945931936846 -0.005210179394231645 0.0 -0.06770278649208575 -0.007575926379444001 0.0 -0.08129192882100916 0.0029381804473990656 0.0 1.185816698578353 0.21966233221357784 0.0 0.7774662667968002 0.19847946341479608 0.0 0.7779243059502817 0.15424630121130453 0.0 0.7857426090877359 0.10692218479233018 0.0 0.620583558746278 0.11098985427567981 0.0 0.35340849848857336 0.0012964382253380098 0.0 0.0935890101962037 0.0036645371492245527 0.0 0.36504537662532516 -0.02081127858666601 0.0 1.0719151491154408 0.07668822810048517 0.0 0.0 0.0 0.0 0.5199487498263443 0.011283344917018474 0.0 0.9318923105209236 0.02911729584170786 0.0 -0.10940647418885949 0.00037811901152665875 0.0 1.0970329007288502 0.26698951367147217 0.0 0.9003391080577239 0.1124178320911415 0.0 1.2802381903493552 -0.04960849245445899 0.0 0.186844212297257 -0.0037901280541448763 0.0 0.35890216383589535 0.017668780452914132 0.0 0.14313807078553814 5.481564746414762e-06 0.0 1.3030514869535432 0.03923102549018638 0.0 -0.1061763393821266 -0.001750660417647139 0.0 -0.07755756765302284 -0.006675584967788113 0.0 -0.09779960149103588 -0.0047514838014866495 0.0 -0.04345566793189884 0.006795421019164119 0.0 -0.09551474836244214 0.0007658558139701874 0.0 -0.11586675803928141 -0.0002006688476204986 0.0 -0.06684023901491869 -0.0022946885864638367 0.0 -0.041289197760480505 0.003189854171429727 0.0 -0.11969818275314623 -0.0023046251259513087 0.0 0.07541366040118896 -0.0022666107255495693 0.0 -0.03872906199516401 0.005439372835149932 0.0 -0.12307461647246395 -0.0015123462425348615 0.0 -0.12175457819121342 -0.0010674303345800896 0.0 -0.023737282850177177 -0.0027769813828545757 0.0 0.0 0.0 0.0 0.9464401172918573 0.25544488087604966 0.0 0.9513531174055821 0.04011759588570442 0.0 0.22509954167320037 -0.004620462766151561 0.0 0.30877485192619497 -0.004613250062122627 0.0 0.5443801222752777 0.020806015828767108 0.0 0.9123725020497496 0.04291517782870003 0.0 1.192103605810184 0.03451192868394569 0.0 1.3536036622804595 0.014594211688312778 0.0 0.08809019345251307 0.0020367428418574403 0.0 -0.03586118574876623 -0.0002145199511805731 0.0 0.02249036567997931 -0.012215097870264216 0.0 0.1354849451623083 -0.009045315912802701 0.0 0.1255269997499814 -0.014216032069546657 0.0 0.3155322183263665 -0.02358756847651136 0.0 0.5750781669940603 -0.051292375404614475 0.0 0.8594362748154109 -0.0526567108451445 0.0 0.3666965876243565 -0.03213968308465574 0.0 0.5552710324894166 -0.03610956865389982 0.0 0.6504661016139272 -0.048064294295666415 0.0 0.7702134699849016 -0.041278877916054224 0.0 0.2589379547451173 -0.02873361217529776 0.0 1.2726658289658257 -0.06475055343005968 0.0 1.058493104332564 -0.05200723860931969 0.0 1.2864688774091941 -0.029195745268330908 0.0 1.0490132778868602 -0.03988036701245333 0.0 -0.04305217028820321 -0.009498256705830765 0.0 1.0269708882111626 -0.06722795318101138 0.0 1.0601856825884988 -0.030222996648199198 0.0 1.22612896928342 -0.1022851885725261 0.0 -0.10889265511324306 -0.0029670869112722476 0.0 0.46013280521517486 -0.04612166088081231 0.0 1.2506057785865554 -0.10532542793224584 0.0 0.13125277445941866 -0.022368418768526747 0.0 -0.12206602828477603 -0.0013904090523232733 0.0 1.2612135330158714 -0.08748515754123684 0.0 0.06259811367592692 -0.02188711874103503 0.0 -0.11159618184891507 -0.0031830144369521143 0.0 -0.026159647285303664 0.009419881909005681 0.0 0.04523272268697413 -0.01843473262034162 0.0 -0.06798706981620102 -0.008854178746586687 0.0 0.4180044799223162 -0.049527805540813985 0.0 -0.048056470108367264 -0.011665948694717744 0.0 0.11335009855664373 0.02943950267663929 0.0 -0.08229693518052834 0.004964240252698438 0.0 -0.07313290190949093 -0.007318675931343269 0.0 -0.09953868489964371 -0.000264568829876573 0.0 0.03968252554858219 0.016536912611124718 0.0 1.2161225222462895 0.10359205425460512 0.0 0.3277760540720145 0.0370499044900682 0.0 0.30350765573253874 -0.045454053620685386 0.0 0.25593454069322247 -0.010426918511511476 0.0 0.7082889190158302 -0.020786036225280326 0.0 0.3062337992246445 0.005452679092036323 0.0 1.176713235845697 0.05292989952001518 0.0 0.8890161660792377 0.060893916344084996 0.0 0.9287208029913929 -0.08305393007439081 0.0 -0.04782495998617941 -0.004380741918143834 0.0 -0.058900815370206534 -0.004151106734512984 0.0 -0.11910985343168543 -0.0019820778848214805 0.0 -0.045710840254115676 0.003675495038990311 0.0 -0.07968429306209465 -0.004762795483437287 0.0 0.32546730434026433 -0.03911386479609258 0.0 1.2577822462948804 -0.09356399433945733 0.0 0.6257071540828018 -0.06203868009031277 0.0 0.8929817967959238 -0.08613779482357602 0.0 -0.028600842394377362 0.01196656513151651 0.0 0.05998778182516529 -0.02382731102326884 0.0 -0.00836516963763894 -0.015866928967496093 0.0 0.20697265632073725 -0.03939547655318742 0.0 -0.01718207251642542 -0.015551699780653926 0.0 1.253766189732338 0.10634013563196104 0.0 -0.06698932066334438 -0.0020547874261383154 0.0 -0.014343993352397165 0.01002300357797891 0.0 -0.051563112885529165 -0.0008071944444717915 0.0 0.05314224874599653 -0.022189780254586393 0.0 0.337226851084221 0.024426962203825345 0.0 0.6874595202823148 -0.07046784748631481 0.0 0.5064991806899825 -0.060322516470557495 0.0 0.7866270035669124 -0.06861468746101097 0.0 0.26382554579650075 -0.03907596274419697 0.0 0.818000192696488 -0.08782987973016597 0.0 1.1659877483577437 -0.09117894034667488 0.0 1.0671312750592614 -0.0838318197193988 0.0 1.0404803085115926 -0.07533582866543898 0.0 0.5909468140035067 -0.06990387159396835 0.0 0.5020885942865932 -0.06493370650380087 0.0 0.3887415749845644 -0.05766932366715042 0.0 0.36444048884383157 -0.05455783809830379 0.0 0.14270395409359368 -0.03376422075647801 0.0 0.7851079733136508 -0.08827548360325028 0.0 0.2596013490355351 0.01453444747935249 0.0 0.6067896572110826 0.03771016462144171 0.0 0.06689407239215853 0.005752520628889079 0.0 0.17148664255597695 0.017505690256363775 0.0 -0.07043534348892788 -4.646178867872046e-05 0.0 1.332835644392595 -0.024464244002673517 0.0 1.218047314466749 0.04114405608983427 0.0 1.3550421878976404 -0.012102658371577944 0.0 1.3265223349332054 -0.06320135566478825 0.0 0.1672692621789216 -0.03644065675613596 0.0 0.35452501836382216 -0.05451061129329635 0.0 0.5587393994602556 0.046592935938806 0.0 0.08718988275560798 0.015113748531416966 0.0 1.308334164985805 0.0040455514623861264 0.0 1.3480981098765992 -0.03300081716364769 0.0 0.5187068402207 0.06814690650166894 0.0 1.3268954954019965 -0.07667940467807376 0.0 0.5886224831731534 0.04311773689292205 0.0 1.2825848861123685 0.07191905225896117 0.0 0.332746766075335 0.03329045415535784 0.0 0.7041682239666754 0.06357503617117007 0.0 1.3348492434166777 0.0241377426644299 0.0 1.2311109137210228 -0.024227324826738388 0.0 1.3175292098980171 -0.08666937256745 0.0 0.8249587590606848 0.061239114122757815 0.0 1.0478905541121561 0.07886880430894545 0.0 1.1070528732586162 0.07228473247425825 0.0 1.2670719993776451 0.0985703853523511 0.0 1.1288449725758831 0.09723980946008365 0.0 0.9749712603870723 0.08113756757404046 0.0 0.668935916760038 0.067055550797472 0.0 1.2731400340373986 -0.08983813943507503 0.0 0.0 0.0 0.0 1.308094784209295 0.057832423988297216 0.0 0.9172740901670422 0.08939042892297171 0.0 0.3255619487886983 0.04146103509899049 0.0 1.3160441870691564 0.07164622019086603 0.0 0.8996050257006512 0.08515885155859587 0.0 1.2709101720086136 0.0912952820913133 0.0 0.5984334534738421 0.06586742556886875 0.0 1.2622000770823583 0.10373987050307495 0.0 0.5498312656833674 0.06770299437856953 0.0 0.25634752091185975 0.03955347086823534 0.0 1.1469826662978484 0.10157265964071384 0.0 0.6618430869514776 0.07439526364868891 0.0 1.0729215096294242 0.10340034971115133 0.0 0.8451166705444041 0.09032419315922788 0.0 0.7765103170509114 0.08854522344958833 0.0 1.195797465713241 0.0886598544826737 0.0 1.1162945903157742 0.0917854604109168 0.0 1.306377116220033 0.08193481242339694 0.0 0.15607168810027564 0.028144983584836056 0.0 1.1521764986532799 0.07926877147824726 0.0 1.2168336807143052 0.1066414767513472 0.0 1.1578264954331423 0.1076380349494992 0.0 1.233904697453897 0.10770273128779702 0.0 1.2440241922002466 0.10860290690191172 0.0 1.2913458268137012 0.08714954796785698 0.0 1.1833158915378488 0.06851058525480039 0.0 0.9460079658188745 0.10166168073476785 0.0 1.2292756253306016 0.09282454697943208 0.0 1.2791765538533457 0.09081444668325712 0.0 1.045161265413538 0.06535042123289304 0.0 1.1629588947531437 0.10997743352674763 0.0 1.0800845652526794 0.10867149664601682 0.0 1.060391759685692 0.1063268607930157 0.0 1.2323654140183493 0.0972567751728054 0.0 0.0 0.0 0.0 0.6445071737901749 -0.0055511324664998946 0.0 1.0778728097181458 0.43424253454331035 0.0 1.1669483913872551 0.42223762448035573 0.0 1.0822160898207396 -0.42677460186561383 0.0 0.8655793205986018 -0.22702370965602034 0.0 0.9788622409705977 -0.2555279282052111 0.0 0.892365246574403 -0.08497017972562108 0.0 1.2227693708313823 -0.052361595809213374 0.0 1.0813563284531476 -0.06407886019749873 0.0 1.1986048444408 -0.1045446037238424 0.0 1.2652424015252741 -0.08462277567635657 0.0 1.315430833784215 -0.053763256392564865 0.0 -0.08335109849962609 -0.0025220541684801644 0.0 -0.05030050979971516 0.007553899705579781 0.0 0.00098997758210097 0.00985201360979636 0.0 0.0008165303090682254 0.011972411809150048 0.0 0.14726603251656503 0.026741027160479876 0.0 -0.05718742699247374 0.008209866750778654 0.0 0.06145977844621333 0.021952056087233354 0.0 0.21741886399236088 0.03716891805136391 0.0 0.08511474446595388 0.03831131581432354 0.0 -0.03614054120990947 0.015132275187432723 0.0 1.0348184466096373 0.16072776494372745 0.0 -0.07004454671169566 0.004115249281675616 0.0 1.2544449488922274 -0.10050550299846887 0.0 1.1418259152022392 -0.09827700204112852 0.0 0.9506173297173551 -0.0926034232499404 0.0 1.1037969709084094 -0.10209911567815379 0.0 1.2391936756552941 -0.10589385542119056 0.0 0.9128860808591381 -0.09540074794180622 0.0 1.2467605808658637 -0.10630180011314495 0.0 1.0774959703046905 -0.10462083043933568 0.0 1.132805490610676 -0.10468958656819495 0.0 0.8631805633326305 -0.09431730428188101 0.0 0.9069451422929694 -0.09693648035348192 0.0 0.6257788347438155 -0.07760387441652063 0.0 1.1039076886890515 -0.10688416621076131 0.0 1.2330059458022116 -0.10544608795749862 0.0 1.0683889339185344 -0.10439049225761424 0.0 1.1679931749072765 -0.08549810378441561 0.0 1.1927428927297246 -0.10774832469441932 0.0 0.6813582139934544 -0.08089721817171376 0.0 1.1405863095787332 -0.10463696435185774 0.0 0.938572544280897 -0.097535449