<?xml version="1.0"?>
<VTKFile type="UnstructuredGrid"  version="0.1"  >
<UnstructuredGrid>
<Piece  NumberOfPoints="1289" NumberOfCells="2413">
<Points>
<DataArray  type="Float64"  NumberOfComponents="3"  format="ascii">0 0 0  0 0.41 0  2.2 0.41 0  2.2 0 0  0.1 0.1 0  0.1 0.3 0  0.8 0.3 0  0.8 0.1 0  0.25 0.2 0  0.248976 0.210065 0  0.245948 0.219718 0  0.241038 0.228563 0  0.234448 0.23624 0  0.226448 0.242432 0  0.217365 0.246888 0  0.207571 0.249423 0  0.197468 0.249936 0  0.187467 0.248404 0  0.17798 0.24489 0  0.169395 0.239539 0  0.162062 0.232569 0  0.156283 0.224265 0  0.152293 0.214968 0  0.150257 0.205058 0  0.150257 0.194942 0  0.152293 0.185032 0  0.156283 0.175735 0  0.162062 0.167431 0  0.169395 0.160461 0  0.17798 0.15511 0  0.187467 0.151596 0  0.197468 0.150064 0  0.207571 0.150577 0  0.217365 0.153112 0  0.226448 0.157568 0  0.234448 0.16376 0  0.241038 0.171437 0  0.245948 0.180282 0  0.248976 0.189935 0  1.1 0 0  1.1 0.41 0  0.1 0.2 0  0.45 0.1 0  0.45 0.3 0  0.55 0 0  0.275 0.1 0  0.275 0.3 0  0.275 0 0  0.55 0.41 0  0 0.205 0  0.825 0 0  0.825 0.41 0  0.275 0.41 0  0.1 0.15 0  0.1875 0.1 0  0.1 0.25 0  0.1875 0.3 0  0.132322 0.2 0  0.241426 0.253518 0  0.241426 0.146482 0  0.264574 0.17974 0  0.264574 0.22026 0  0.138434 0.187348 0  0.153372 0.150948 0  0.148413 0.164094 0  0.176495 0.136535 0  0.22768 0.143571 0  0.138434 0.212652 0  0.148413 0.235906 0  0.176495 0.263465 0  0.22768 0.256429 0  0.23125 0.3 0  0.24769 0.24094 0  0.23125 0.1 0  0.24769 0.15906 0  0.26253 0.193641 0  0.190482 0.137872 0  0.166753 0.146661 0  0.157737 0.244461 0  0.190482 0.262128 0  0.203107 0.261264 0  0.253635 0.22977 0  0.203107 0.138736 0  0.253635 0.17023 0  0.261028 0.206206 0  0.167707 0.251809 0  0.143629 0.224191 0  0.215302 0.2591 0  0.270465 0.245894 0  0.215302 0.1409 0  0.270465 0.154106 0  0.284052 0.202587 0  0.14375 0.3 0  0.209375 0.3 0  0.225966 0.278501 0  0.209375 0.1 0  0.225966 0.121499 0  0.211613 0.273759 0  0.211613 0.126241 0  0.143629 0.175809 0  0.1 0.175 0  0.133484 0.164832 0  0.144491 0.249539 0  0.1 0.225 0  0.133484 0.235168 0  0.3625 0.3 0  0.25691 0.253381 0  0.25691 0.146619 0  0.277205 0.188698 0  0.184724 0.275712 0  0.237372 0.268285 0  0.184724 0.124288 0  0.237372 0.131715 0  0.197578 0.273149 0  0.193656 0.286994 0  0.197578 0.126851 0  0.193656 0.113006 0  0.122953 0.187671 0  0.118362 0.153758 0  0.155372 0.258107 0  0.122953 0.212329 0  0.118362 0.246242 0  0.276394 0.27264 0  0.276394 0.12736 0  0.280965 0.170013 0  0.253125 0.3 0  0.14375 0.1 0  0.253125 0.1 0  0.269489 0.26014 0  0.269489 0.13986 0  0.303639 0.184297 0  0.165625 0.3 0  0.134742 0.273113 0  0.257831 0.274737 0  0.255279 0.128499 0  0.3625 0.1 0  0.165625 0.1 0  0.162031 0.132368 0  0.134955 0.126405 0  0.149334 0.125568 0  0.142936 0.139597 0  0.12695 0.140259 0  0.242514 0.285501 0  0.242514 0.114499 0  0.1 0.125 0  0.117483 0.12555 0  0.11154 0.139776 0  0.121875 0.1 0  0.109143 0.1125 0  0.126805 0.114 0  0.220313 0.29129 0  0.351562 0.287369 0  0.207222 0.2866 0  0.220312 0.10871 0  0.1375 0 0  0.20625 0 0  0.207222 0.1134 0  0.11722 0.17118 0  0.1 0.1625 0  0.0778409 0.16875 0  0.0862762 0.15625 0  0 0.15375 0  0 0.1025 0  0.11722 0.22882 0  0.1 0.2375 0  0 0.3075 0  0.0862762 0.23125 0  0.0598995 0.222547 0  0.0860223 0.2125 0  0.289584 0.181469 0  0.300267 0.16446 0  0.163832 0.269071 0  0.149597 0.273325 0  0.1 0.275 0  0.268498 0.285953 0  0.31875 0.3 0  0.294154 0.254672 0  0.296875 0.3 0  0.293558 0.271845 0  0.285095 0.286799 0  0.324298 0.264316 0  0.307866 0.263745 0  0.317093 0.234901 0  0.315485 0.281219 0  0.316547 0.250625 0  0.344693 0.243731 0  0.331592 0.251147 0  0.35129 0.270663 0  0.338689 0.263683 0  0.340625 0.3 0  0.249849 0.264383 0  0.265097 0.11422 0  0.284688 0.156136 0  0.242188 0.324017 0  0.0856613 0.2625 0  0.132812 0.0612217 0  0.264062 0.0612217 0  0.198437 0.07598340000000001 0  0.0860223 0.1375 0  0.0794526 0.191089 0  0.285228 0.140397 0  0.298655 0.148737 0  0.31875 0.1 0  0.327335 0.15374 0  0.296875 0.1 0  0.312289 0.155283 0  0.313348 0.135607 0  0.321802 0.173916 0  0.298433 0.134116 0  0.112124 0.2625 0  0.127526 0.259083 0  0.121875 0.3 0  0.0682687 0.241503 0  0.1 0.2875 0  0.117762 0.28125 0  0.107813 0.3 0  0.103906 0.313849 0  0.0778409 0.28125 0  0.1375 0.41 0  0.0862762 0.29375 0  0.08886860000000001 0.24375 0  0.307812 0.338778 0  0.307812 0.292227 0  0.33216 0.279164 0  0.387888 0.266414 0  0.264063 0.31948 0  0.110937 0.07598340000000001 0  0.242188 0.07598340000000001 0  0.319914 0.11839 0  0.340625 0.1 0  0.334448 0.133793 0  0.329687 0.108539 0  0.346259 0.118491 0  0.360334 0.173636 0  0.327539 0.205033 0  0.132812 0.288712 0  0.362436 0.278836 0  0.368105 0.259418 0  0.4125 0.41 0  0.329687 0.324017 0  0.329687 0.292306 0  0.285938 0.318952 0  0.417187 0.338778 0  0.324481 0.14148 0  0.351562 0.106771 0  0.40625 0.1 0  0.341028 0.168342 0  0.319221 0.190479 0  0.335292 0.184501 0  0.305563 0.20794 0  0.220313 0.31948 0  0.132812 0.332772 0  0.0865876 0.311259 0  0.0598995 0.302453 0  0.0906541 0.343255 0  0.353543 0.255837 0  0.36574 0.237633 0  0.405007 0.254279 0  0.275795 0.352123 0  0.4125 0 0  0.35493 0.137394 0  0.366563 0.120618 0  0.35917 0.205246 0  0.198438 0.318952 0  0.0626109 0.263892 0  0.40625 0.3 0  0.354809 0.155936 0  0.386512 0.146872 0  0.373101 0.159939 0  0.384375 0.1 0  0.343394 0.19929 0  0.350682 0.185683 0  0.368101 0.189748 0  0.344016 0.221511 0  0.391108 0.213329 0  0.376279 0.204783 0  0.398843 0.182768 0  0.375804 0.222746 0  0.390665 0.196958 0  0.394004 0.23518 0  0.359883 0.222828 0  0.419908 0.204359 0  0.404243 0.204783 0  0.412615 0.224526 0  0.20625 0.41 0  0.165625 0.325257 0  0.0347982 0.244954 0  0.379558 0.247154 0  0.34165 0.147603 0  0.372264 0.136992 0  0.388988 0.121989 0  0.373437 0.108554 0  0.351562 0.31948 0  0.391367 0.16527 0  0.399572 0.223324 0  0.452011 0.227371 0  0.40877 0.239392 0  0.431491 0.237337 0  0.421224 0.250459 0  0.449619 0.262098 0  0.418865 0.276779 0  0.437063 0.252274 0  0.415673 0.263227 0  0.430988 0.266772 0  0.402767 0.273419 0  0.452967 0.244883 0  0.428125 0.3 0  0.408502 0.286186 0  0.384375 0.3 0  0.392267 0.285807 0  0.465927 0.219339 0  0.43489 0.283846 0  0.376424 0.286289 0  0.625 0.3 0  0.473533 0.205186 0  0.461713 0.255517 0  0.5375 0.3 0  0.465725 0.235405 0  0.44631 0.201425 0  0.471875 0.3 0  0.494307 0.227729 0  0.459448 0.206736 0  0.462294 0.180792 0  0.478933 0.227536 0  0.486793 0.21381 0  0.486322 0.251373 0  0.50065 0.215318 0  0.54005 0.175389 0  0.474633 0.189893 0  0.512916 0.208697 0  0.49531 0.199967 0  0.475889 0.175275 0  0.625 0.1 0  0.459311 0.153933 0  0.513645 0.242704 0  0.392892 0.248539 0  0.374815 0.271913 0  0.365974 0.14871 0  0.395312 0.109184 0  0.417061 0.123981 0  0.483196 0.277003 0  0.381967 0.179632 0  0.429898 0.219374 0  0.433473 0.206165 0  0.43149 0.181038 0  0.444208 0.215487 0  0.472985 0.247309 0  0.49375 0.3 0  0.475579 0.262714 0  0.49916 0.274293 0  0.501175 0.184809 0  0.514164 0.225681 0  0.543648 0.214977 0  0.5341630000000001 0.23481 0  0.527396 0.216171 0  0.5375 0.1 0  0.534548 0.202315 0  0.561545 0.192513 0  0.5494289999999999 0.201221 0  0.570923 0.218346 0  0.412582 0.149833 0  0.489327 0.264745 0  0.502439 0.254775 0  0.462391 0.271166 0  0.496775 0.241732 0  0.5294410000000001 0.268606 0  0.482812 0.291099 0  0.46879 0.285038 0  0.452663 0.284065 0  0.51789 0.257882 0  0.53408 0.252026 0  0.560142 0.243543 0  0.545708 0.243474 0  0.547532 0.229019 0  0.55282 0.265323 0  0.398971 0.153424 0  0.400349 0.135684 0  0.410135 0.168145 0  0.428823 0.161323 0  0.415266 0.183779 0  0.329687 0.0810483 0  0.395312 0.0612217 0  0.373437 0.318952 0  0.439062 0.324017 0  0.561816 0.229354 0  0.585029 0.239287 0  0.431827 0.139854 0  0.446796 0.168929 0  0.351562 0.07598340000000001 0  0.395313 0.318944 0  0.54337 0.150762 0  0.460937 0.31948 0  0.418412 0.137529 0  0.428125 0.1 0  0.442783 0.152332 0  0.450742 0.134294 0  0.373437 0.0805201 0  0.384383 0.342558 0  0.482812 0.318952 0  0.429239 0.127457 0  0.444274 0.117405 0  0.426548 0.113815 0  0.49375 0.1 0  0.488954 0.113984 0  0.457973 0.121842 0  0.471621 0.137346 0  0.515625 0.325257 0  0.48125 0.41 0  0.417187 0.07598340000000001 0  0.496363 0.126778 0  0.479043 0.155715 0  0.439062 0.0805201 0  0.481795 0.126919 0  0.471875 0.1 0  0.489227 0.142159 0  0.515625 0.1 0  0.520062 0.147117 0  0.501244 0.161791 0  0.505431 0.112984 0  0.505344 0.14029 0  0.526563 0.119081 0  0.5181750000000001 0.131908 0  0.539868 0.136937 0  0.460937 0.108383 0  0.474242 0.114415 0  0.460937 0.0810483 0  0.487841 0.167168 0  0.526563 0.0612217 0  0.526563 0.106406 0  0.537619 0.112743 0  0.58125 0.1 0  0.559375 0.1 0  0.482812 0.08105569999999999 0  0.471883 0.0587655 0  0.570312 0.129396 0  0.548437 0.07598340000000001 0  0.504687 0.08105569999999999 0  0.49375 0.0470127 0  0.570312 0.112663 0  0.592798 0.12103 0  0.553986 0.12103 0  0.570312 0.0805201 0  0.48125 0 0  0.114787 0.2 0  0.160769 0.284765 0  0.175816 0.288361 0  0.162602 0.116048 0  0.154687 0.07598340000000001 0  0.176562 0.0805201 0  0.0598995 0.147547 0  0.307812 0.109924 0  0.291279 0.117157 0  0.278491 0.112989 0  0.285937 0.07598340000000001 0  0.307812 0.0805201 0  0.296928 0.196743 0  0.318141 0.218507 0  0.330208 0.227509 0  0.301397 0.225668 0  0.302706 0.241401 0  0.292574 0.21424 0  0.282762 0.230935 0  0.284351 0.244775 0  0.269553 0.23261 0  0.278572 0.217242 0  0.226924 0.342606 0  0.446928 0.185396 0  0.515625 0.3 0  0.504687 0.288879 0  0.515256 0.276534 0  0.529479 0.285328 0  0.58125 0.3 0  0.541969 0.272936 0  0.559375 0.3 0  0.556796 0.282529 0  0.543473 0.287206 0  0.581429 0.267774 0  0.566728 0.271171 0  0.570869 0.255585 0  0.577404 0.283865 0  0.603125 0.3 0  0.597531 0.28035 0  0.570312 0.338778 0  0.592188 0.292492 0  0.603513 0.256094 0  0.614063 0.286265 0  0.610329 0.27064 0  0.632708 0.251285 0  0.657223 0.261594 0  0.618789 0.257807 0  0.614188 0.22987 0  0.630935 0.265614 
[...]
<PointData  Vectors="v"> 
	<DataArray  type="Float64"  Name="v"  NumberOfComponents="3" format="ascii">
0.0 0.0 0.0 0.0 0.0 0.0 0.0 0.0 0.0 0.0 0.0 0.0 0.7962283363456917 -0.19597905780813502 0.0 0.8404103764329471 0.2077709806877587 0.0 1.169079349194808 -0.060179840636058295 0.0 1.1362427773870452 0.05513593496212754 0.0 0.0 0.0 0.0 0.0 0.0 0.0 0.0 0.0 0.0 0.0 0.0 0.0 0.0008583469958630275 0.0007995516954041472 0.0 0.00031164828807944846 0.0004040398764471833 0.0 0.00048123346695034424 0.0008457062858953962 0.0 0.0 0.0 0.0 0.0 0.0 0.0 0.0 0.0 0.0 0.0 0.0 0.0 0.0 0.0 0.0 0.0 0.0 0.0 0.0 0.0 0.0 0.0 0.0 0.0 0.0 0.0 0.0 0.0 0.0 0.0 0.0 0.0 0.0 0.0 0.0 0.0 0.0 0.0 0.0 0.0 0.0 0.0 0.0 0.0 0.0 0.0 0.0 0.0 0.0 0.0 0.0 0.0 0.0 0.0 0.0005001326793954156 -0.0008696719724927631 0.0 0.0003745956925508352 -0.000513875557148042 0.0 0.000841800730510618 -0.0007834279085949762 0.0 0.0 0.0 0.0 0.0 0.0 0.0 0.0 0.0 0.0 0.0 0.0 0.0 0.0 0.0 0.0 0.7613286821853827 -0.0012769391242247329 0.0 1.2756868748895394 0.08282401251833418 0.0 1.2661044353582311 -0.0774627865287836 0.0 0.0 0.0 0.0 1.353616879617656 -0.13300621406150837 0.0 1.3582118466403434 0.15482594260634955 0.0 0.0 0.0 0.0 0.0 0.0 0.0 1.0 0.0 0.0 0.0 0.0 0.0 0.0 0.0 0.0 0.0 0.0 0.0 0.842591806301624 -0.2318811647520074 0.0 1.15138439509918 -0.34433201207773906 0.0 0.863784542890436 0.22931176025568337 0.0 1.1662963197100016 0.3540928673599336 0.0 0.4282356266342752 -0.003962546239912714 0.0 0.16514577538602782 0.062474954530222664 0.0 0.16979633855025267 -0.060922809981195314 0.0 -0.02751626015794076 -0.038295252368201145 0.0 -0.0258725291799151 0.03636919135765016 0.0 0.33437648232343953 -0.2798352379971508 0.0 0.8578842485816478 -0.6734550593264169 0.0 0.6399874534675856 -0.6881438439529071 0.0 1.206125294257674 -0.6132942411148278 0.0 0.41558233532553146 -0.06919619928053429 0.0 0.33044915473328546 0.26875583244551027 0.0 0.6428383129147417 0.6693333843341907 0.0 1.1851668441686491 0.6153894012078749 0.0 0.4079384335805064 0.07145153351106989 0.0 1.313258271926137 0.2608933417430369 0.0 0.323537628977845 0.25210654730654086 0.0 1.3026230780291912 -0.24053525956073923 0.0 0.31468849042987584 -0.23963001086620775 0.0 -0.033496948620851126 -0.016905565424201456 0.0 1.1248557327240776 -0.39874866450791857 0.0 1.0931828979976925 -0.7243333317127151 0.0 0.8520679155721577 0.7707549076603305 0.0 1.1314054696208737 0.3995614806250143 0.0 0.7594147624418252 0.18601563365453458 0.0 0.10879830721434483 0.051490431651671754 0.0 0.7693080267595549 -0.18190250173467165 0.0 0.11119142160375313 -0.049923824565140947 0.0 -0.02954086084187075 0.019140540629562216 0.0 1.0275259194523485 0.7188926767713554 0.0 0.44238642584985255 0.5292061523850955 0.0 0.4579722383293308 0.17771945395424557 0.0 0.2714003543519454 0.06909106463741624 0.0 0.46411022682518044 -0.17363061402239788 0.0 0.2771426163305784 -0.06467865951656761 0.0 -0.0751001344717986 0.00235877903122177 0.0 0.9654870623100207 0.31741643726489044 0.0 1.260578803306666 0.3131917345059174 0.0 1.2451889353464554 0.28885043241852726 0.0 1.234815044220722 -0.3076687902680768 0.0 1.2477667033727626 -0.28104625141097084 0.0 1.2202224316907462 0.33104491200174657 0.0 1.2260715548924601 -0.32265236489965715 0.0 0.4428831377090151 -0.5445610950444572 0.0 0.8020150565796798 -0.1396206694403273 0.0 0.6715050115867597 -0.41968974091166256 0.0 0.877376994683333 0.5938549230790328 0.0 0.7993071742626192 0.14281383168804376 0.0 0.6764970888007399 0.4201616169358937 0.0 1.2927863595806701 -0.0072689956622312 0.0 0.2932744370217802 0.14439232585122608 0.0 0.2946548871924274 -0.13444909953949727 0.0 -0.05435781962476783 -0.012864165026051939 0.0 1.2650876428836475 0.4718255159920224 0.0 0.7687279969560061 0.1208439398261543 0.0 1.2610972768448387 -0.4732887879794842 0.0 0.7890748993818537 -0.11560256703669067 0.0 1.2756314979786105 0.4180793977030204 0.0 1.2540237137979888 0.40113838860355977 0.0 1.2715411972897892 -0.4142389073225117 0.0 1.2446732062127484 -0.3811226897710012 0.0 0.5835252898983294 -0.16051623801484904 0.0 0.7964289370847278 -0.3317994051629371 0.0 1.0104449659822998 0.6038115167478753 0.0 0.5917522231874359 0.15062026533142078 0.0 0.8125655679108926 0.3317149868677344 0.0 0.7459486394420485 0.0808272273313028 0.0 0.7825442121173005 -0.07303610644172884 0.0 0.05220623437145721 -0.02200986109630815 0.0 1.3634776716941943 0.20744529809901624 0.0 0.92981203164928 -0.3222209966873698 0.0 1.344543569128656 -0.19005885872294254 0.0 0.4093358798391516 0.09085738736278352 0.0 0.4270563841609623 -0.07827009120017112 0.0 -0.05456251224738774 -0.008089863063452525 0.0 1.057373169846992 0.3540090729670802 0.0 0.943167976527605 0.39148419970602605 0.0 0.9222709629469622 0.11236074959695319 0.0 0.8242055953567496 -0.08690832932279041 0.0 1.3067675881698424 0.016579190803772223 0.0 1.0274955571807285 -0.3451911003748674 0.0 1.074472485471884 -0.5703192070935936 0.0 0.9301218625053388 -0.3893867283363918 0.0 0.9974523812258109 -0.4386433862825187 0.0 0.9329178113750585 -0.5428184257260952 0.0 0.8655229373771072 -0.40648955141472476 0.0 1.2734385257919476 0.23288752629771345 0.0 1.2714834296346451 -0.21960577236841866 0.0 0.8526507849015756 -0.23562288271362228 0.0 0.8790424076675145 -0.3099444600932363 0.0 0.852889109355003 -0.29903594021675883 0.0 0.8514009014974226 -0.25639446189484505 0.0 0.8542050104760179 -0.25277239849391475 0.0 0.8962643383211104 -0.31945862202091074 0.0 1.3292661931361374 0.3156002258545249 0.0 1.0846929323062435 -0.0024981938433168427 0.0 1.3146226298907409 0.36236860381628894 0.0 1.3213132512728905 -0.29607343387950286 0.0 0.0 0.0 0.0 0.0 0.0 0.0 1.2994053231788736 -0.34947601253970284 0.0 0.7142398681037252 -0.2673046704840946 0.0 0.8203879485052836 -0.21075420319053187 0.0 0.8711698833013015 -0.11074599075943249 0.0 0.8624382986347787 -0.16375808922654844 0.0 0.9375 0.0 0.0 0.7500000000000001 0.0 0.0 0.7224774428392309 0.2653197516427165 0.0 0.8240410646523519 0.20015789456585978 0.0 0.7499999999999999 0.0 0.0 0.8697190930622904 0.12783524355929884 0.0 0.9287133684634933 0.04284453502674948 0.0 0.8481124255674902 0.0450803458921978 0.0 -0.034894789982332544 -0.011516152740879623 0.0 0.09142046000322127 -0.01749577110879193 0.0 1.1150331312425943 0.5547919165354845 0.0 1.0190273378604449 0.4731606536527843 0.0 0.880977062981914 0.24548619538541536 0.0 1.2001367095997069 0.13904468096530073 0.0 1.3289002433738106 0.05977883387007161 0.0 0.35209430880166215 0.038024580005610306 0.0 1.3561839414506067 0.10285902823374944 0.0 0.7140533624783986 0.0537451145144239 0.0 1.1712360603867105 0.10021382102722054 0.0 0.5147499137912768 0.015810213662522884 0.0 0.4963470131136746 0.030032943204890784 0.0 0.06987947720168841 0.013398075231447341 0.0 0.9567809767210947 0.03449922646647312 0.0 0.2572542297509802 0.022148481521430435 0.0 0.1634066281043347 0.008449900997338488 0.0 0.2677961531074192 0.014586815952586669 0.0 0.6668156869965028 -0.004885092874456379 0.0 0.4985126490825166 0.00695431515271859 0.0 1.3158006054885294 0.019255092423088704 0.0 0.5424747236047791 0.06219987082554023 0.0 1.230171241440292 -0.14201832023047287 0.0 0.20203810496097707 -0.03753576626056802 0.0 1.2058036256949807 0.1735442151645454 0.0 0.8828274642447136 0.17975474737545702 0.0 0.7011124069197243 -0.1679509267021245 0.0 1.115554140227279 -0.09423139746663182 0.0 1.0385272683477713 -0.22376088797869714 0.0 0.8637474912330729 -0.18264262627152664 0.0 0.8754190634262566 -0.025583010236476612 0.0 0.4394514947705727 -0.04806828996145985 0.0 0.29045368666269084 -0.03302354600402775 0.0 1.3289166174858464 -0.04192042569431505 0.0 0.20844300360399187 -0.013457936877469288 0.0 1.355406482452234 -0.08637185765732106 0.0 0.19145051902506344 -0.019013092701128328 0.0 0.5355237672307207 -0.01567310782839849 0.0 -0.0015902237732555598 -0.011214043071729435 0.0 0.5722108960741837 -0.03143764892503832 0.0 0.8788985818844576 0.2971719251150523 0.0 0.8795696146937018 0.41078981221273586 0.0 0.8851017461219434 0.2703465646974614 0.0 0.9122211376341777 0.10986103659169452 0.0 0.8651843107513197 0.2233074924455413 0.0 0.9047359029261256 0.30373412343134487 0.0 0.8572441715034714 0.2335329087691006 0.0 0.802032692642711 0.18339069331734736 0.0 0.8670586584890316 0.16154167958367432 0.0 0.0 0.0 0.0 0.8415226694044812 0.1767053278921734 0.0 0.8706591215671693 0.17103932680214215 0.0 1.213112229491282 0.04973221521798939 0.0 1.237672782028206 0.06493303825845814 0.0 0.8903794117629183 0.013184589724320857 0.0 0.5941883610844755 -0.026104632711453142 0.0 1.2798759582019308 0.1470659412970923 0.0 0.7176105680163716 -0.17371852069770308 0.0 1.1779864797349389 -0.16455894914505295 0.0 0.998558337459536 -0.01980696867521137 0.0 1.3235269951132487 -0.00777021634157735 0.0 0.5853919901183068 -0.00014259238777546013 0.0 1.220383795983007 -0.012626264514268565 0.0 0.9833668200108038 0.009180139099011312 0.0 -0.004543623055573305 -0.007138179192777738 0.0 -0.09616967166603373 0.0010655285467275827 0.0 0.9448684030686829 0.34124102670990125 0.0 0.8779473202887733 -0.018506392439341154 0.0 0.42763771583440024 -0.008279331004172554 0.0 0.0 0.0 0.0 1.32863633006382 0.03745233678365152 0.0 1.2126982231320238 0.024901952521895972 0.0 1.3172447840050907 0.11456570090460655 0.0 1.2523082830454333 -0.044374046354819195 0.0 0.41347860368259703 -0.013773261392650149 0.0 1.2282500618496073 0.010449941622446434 0.0 1.2911856396546397 0.05677991976498621 0.0 0.04100305576161262 -0.00986469900319165 0.0 -0.08252485593072209 -0.005187508198879726 0.0 -0.06768375777482338 -0.007547711511426192 0.0 -0.08119635142239208 0.002986762544556596 0.0 1.1858202521723098 0.21970832994758066 0.0 0.7774560049195548 0.19847966586820498 0.0 0.7779178857809657 0.15423707654443763 0.0 0.7857391141132485 0.10691211153757167 0.0 0.6205776592601605 0.11098439768301126 0.0 0.3530831050938311 0.0013638107106236379 0.0 0.09330381113561116 0.003726423632772196 0.0 0.36476808261217114 -0.020827260661340864 0.0 1.0719598434407793 0.07671170197848227 0.0 0.0 0.0 0.0 0.5197531548303455 0.011352446821389216 0.0 0.9317579423692424 0.02913116070777168 0.0 -0.10942516277846921 0.0004163599402981724 0.0 1.0970237169480042 0.2670221509127681 0.0 0.9003354276113366 0.11240313651163764 0.0 1.280307433294633 -0.049634497472879735 0.0 0.1866699511319323 -0.0037411993449810023 0.0 0.3587196352221634 0.01765032189123746 0.0 0.14301943374440707 6.689556273729553e-06 0.0 1.3029288957345668 0.03917311288644383 0.0 -0.10614286109680687 -0.0017040024457161186 0.0 -0.077543120169589 -0.006651752498854322 0.0 -0.09779205145919459 -0.004748550341137862 0.0 -0.04357499245726697 0.0068851644952849 0.0 -0.0956244396384412 0.0007626070966703028 0.0 -0.11590875800454954 -0.00019168928557374603 0.0 -0.06686357431739115 -0.0023421512426552104 0.0 -0.04146252585779526 0.0032215181546011613 0.0 -0.11972946765912774 -0.0023250769137867864 0.0 0.07514058587890451 -0.002261359939171685 0.0 -0.0388818803848441 0.005504946634774942 0.0 -0.12316464526751252 -0.0015219005498448648 0.0 -0.12183092976290548 -0.0010877761703580549 0.0 -0.023938593510790876 -0.002787299404751257 0.0 0.0 0.0 0.0 0.9464268753266243 0.25545708090659935 0.0 0.9513525294539418 0.040107258888010734 0.0 0.22478201499164138 -0.0045921124757662595 0.0 0.3085399829904545 -0.004529619161274655 0.0 0.5441809915327998 0.020831049773750204 0.0 0.9121808283001243 0.042879807218830335 0.0 1.1919812202033895 0.034476766884121775 0.0 1.3536785171070655 0.014589393632522452 0.0 0.08802127635742134 0.0019932018591426767 0.0 -0.03605118995572319 -0.00021947559656113692 0.0 0.022300112708232903 -0.012093172941277137 0.0 0.13519442650745045 -0.009057603585577454 0.0 0.12526628290782316 -0.014201699133107959 0.0 0.3152462125515492 -0.023601623809284985 0.0 0.5748891829211339 -0.05124703829118569 0.0 0.8594074802470756 -0.05267800427598017 0.0 0.36643028451569776 -0.03212637441183113 0.0 0.5550805371941067 -0.03613346645148578 0.0 0.6503217286728199 -0.04807586470019141 0.0 0.7701443723813409 -0.04130351296462169 0.0 0.2586873696156091 -0.028645120500587946 0.0 1.2727284527033818 -0.06476034779296166 0.0 1.0585363858651242 -0.05203337523500533 0.0 1.2865416997923806 -0.029219066446274897 0.0 1.0490539200274582 -0.03990317515298346 0.0 -0.04319964602497257 -0.009261748329619209 0.0 1.0269914763920505 -0.0672220851085743 0.0 1.060217637265626 -0.030236004110812363 0.0 1.2266452682059457 -0.10300411735688829 0.0 -0.10903759027394572 -0.002650405986913879 0.0 0.45991740712199797 -0.04600529728158796 0.0 1.2509505876161922 -0.1052260133968828 0.0 0.1310606609284487 -0.02216891659847936 0.0 -0.12218252678631021 -0.0012966724202383992 0.0 1.2612914251613578 -0.08739257990078841 0.0 0.06252453551712524 -0.02138482244136801 0.0 -0.11173165370604071 -0.002989003175119348 0.0 -0.026320235511454952 0.00957906757956112 0.0 0.04510968531098492 -0.01807640378687457 0.0 -0.06810830406638879 -0.00839609106889942 0.0 0.4178629940967514 -0.049237473654702144 0.0 -0.048142649791815026 -0.011052686231996492 0.0 0.11260346473844864 0.030262403866075354 0.0 -0.08249001897563298 0.005261536358981558 0.0 -0.07326453998047557 -0.006539346490269826 0.0 -0.0997400734658825 0.0003023426313941399 0.0 0.03945477167873645 0.016793214734954466 0.0 1.2157281336533194 0.10296966359196084 0.0 0.3275940961112339 0.03707347839356154 0.0 0.30357252738675233 -0.044872460640029616 0.0 0.25562749169093846 -0.010425606862591605 0.0 0.708169373645271 -0.02077635734367253 0.0 0.3060458964855444 0.005491554607688337 0.0 1.1765541156176231 0.05285539914937106 0.0 0.8887818529031359 0.0608139714360104 0.0 0.9287162543332652 -0.08287382342810892 0.0 -0.04784087482493914 -0.004406994580430563 0.0 -0.05907036626399624 -0.004127312354671574 0.0 -0.11921857556951863 -0.0019508213826994155 0.0 -0.04578919160398663 0.003656515845445009 0.0 -0.07983011928196869 -0.004683421166584446 0.0 0.3252695642490004 -0.03890136290925151 0.0 1.2579160665976112 -0.09342670678952664 0.0 0.6255671030078999 -0.06186099859813316 0.0 0.8930193606590849 -0.08587829868281031 0.0 -0.028929304454595912 0.012537505393194502 0.0 0.06002845540191656 -0.02311043770252429 0.0 -0.008289024212311952 -0.014882964582035509 0.0 0.2072134447489122 -0.03861803527985838 0.0 -0.01716941255029743 -0.014654003550415925 0.0 1.253443694534574 0.10639427895033544 0.0 -0.06720724777811078 -0.0010875704549008355 0.0 -0.014933440706062392 0.011032969932665528 0.0 -0.05182515585539254 0.00023393544947128566 0.0 0.05350242677897498 -0.021289570473302478 0.0 0.3370761034903001 0.024354865765519842 0.0 0.6873816643535826 -0.07021054550898745 0.0 0.5064577814108295 -0.059923430587792585 0.0 0.786538401515575 -0.06852106166405462 0.0 0.26375106568319023 -0.0386394148777106 0.0 0.8182244012402623 -0.0874512082123954 0.0 1.1660757942482023 -0.09102969410434696 0.0 1.0671636258110713 -0.08372325078642409 0.0 1.0404988711631373 -0.07528359134276794 0.0 0.5910280121080479 -0.06944402699888585 0.0 0.5023494375149281 -0.06437521482347272 0.0 0.3893871751870191 -0.05704017543793629 0.0 0.36487282764438606 -0.0538696031471908 0.0 0.14306706110094705 -0.032873297408651546 0.0 0.785611210659184 -0.08791782641988201 0.0 0.2594717935557235 0.014483387195019987 0.0 0.6065719810631122 0.037660177276139475 0.0 0.0668301319247241 0.005684092663708538 0.0 0.17138468236117593 0.017442700020947468 0.0 -0.07048060768547477 -8.954595511002376e-05 0.0 1.3327303395415482 -0.024448906166017175 0.0 1.2179832724101838 0.04109210337785327 0.0 1.3551132010172153 -0.012120695631574308 0.0 1.3265700319112133 -0.06318348566535273 0.0 0.16779730672801968 -0.035586907191605545 0.0 0.3555604659102667 -0.054083875834512754 0.0 0.5585346231401865 0.04651906172117744 0.0 0.08706459315991318 0.015124577313804613 0.0 1.3082340535638297 0.004026058452997348 0.0 1.3481569844758508 -0.03302444270642275 0.0 0.5179063355745959 0.06866043933026035 0.0 1.3269493663277288 -0.07662546735696725 0.0 0.58840959288024 0.043044976535703244 0.0 1.282468136330973 0.07184577203480516 0.0 0.33259529679450833 0.03324860006668737 0.0 0.7039363718652988 0.06353823400956096 0.0 1.3347446238956533 0.02408775100241492 0.0 1.2311714512592695 -0.02423665465384367 0.0 1.3176132670116696 -0.0865868708556409 0.0 0.8247228339217164 0.061166037214998525 0.0 1.0476743175527148 0.07881195068433494 0.0 1.1068511960611431 0.07220260886144221 0.0 1.2669195458814242 0.0986383015780089 0.0 1.1286048547936247 0.09733330443127626 0.0 0.9747356834982666 0.08112569005322919 0.0 0.6686950231826564 0.06711549524883927 0.0 1.273311792240535 -0.0897737277569224 0.0 0.0 0.0 0.0 1.308043103393118 0.05776305968515182 0.0 0.9169636813400228 0.08954992508579121 0.0 0.3253111180669228 0.04163145007422885 0.0 1.3160080610547995 0.07159572009635706 0.0 0.8993348642306613 0.08525287575657338 0.0 1.2707924742884287 0.091309527795199 0.0 0.5981414331012831 0.06604848151900598 0.0 1.261973451106518 0.10382915102599669 0.0 0.5493115588778432 0.06810571496423458 0.0 0.2559589922370692 0.03996177096143435 0.0 1.1466951200773374 0.10171098450016526 0.0 0.6614670046403656 0.0746635625473685 0.0 1.0724868269998795 0.10359388170729988 0.0 0.8446798712097187 0.09059522897075142 0.0 0.7758478635528282 0.08887152414959487 0.0 1.1956287065222542 0.08865078506144912 0.0 1.1160817406912729 0.09182359153583632 0.0 1.3063500935760972 0.08191854950486897 0.0 0.1557692103912191 0.02845981340042342 0.0 1.152135269141715 0.0792709909576324 0.0 1.2165012820910999 0.10676360523953735 0.0 1.1573631870401369 0.10776978563130979 0.0 1.2334122747807725 0.10749037660635635 0.0 1.243596918325353 0.10856032188905312 0.0 1.2913006798546611 0.08716623727047926 0.0 1.1833171907505489 0.06850751118087345 0.0 0.9450677612735491 0.10174160488139243 0.0 1.229134883009222 0.09277663168382866 0.0 1.279102812983769 0.09084774271644344 0.0 1.0451559328868847 0.06536641638563566 0.0 1.162282845059121 0.10990629884563226 0.0 1.0790995232767635 0.10841131119116837 0.0 1.0597226324573314 0.10645525394071402 0.0 1.2321637847146005 0.0970919358892991 0.0 0.0 0.0 0.0 0.6445061949233667 -0.0055783183132929025 0.0 1.077845841708529 0.4342463529939039 0.0 1.166916258425231 0.42225337733930496 0.0 1.082241272456508 -0.42677705198140903 0.0 0.8655960487600709 -0.2270215120727967 0.0 0.9788812168691201 -0.2555164147425228 0.0 0.8923677510848568 -0.08498627740488898 0.0 1.2228026720251515 -0.05228596369642061 0.0 1.08144147041271 -0.06399039484579512 0.0 1.1987095611433771 -0.10445062228638714 0.0 1.2651823950714882 -0.08456057664221645 0.0 1.3153524885213728 -0.05371689523175048 0.0 -0.08321008987884305 -0.0025218713604370935 0.0 -0.05033182670583792 0.0076479331213113125 0.0 0.0008237746842310758 0.009964641650579021 0.0 0.0007164744728794788 0.01204676192361443 0.0 0.14687296131337496 0.026821699062150744 0.0 -0.05710826958543808 0.008234095961079045 0.0 0.06126305711814069 0.021952993339996937 0.0 0.21697175873824567 0.03715766712433404 0.0 0.0849188960951063 0.03824785674319504 0.0 -0.036085609335708334 0.015098283388097987 0.0 1.0348322402063845 0.16076143700837958 0.0 -0.07015574393904568 0.0041695081334412985 0.0 1.2546730757977718 -0.10035794625280559 0.0 1.141978017999713 -0.09806722233126526 0.0 0.9507673544608137 -0.0923169289013135 0.0 1.1040966091350566 -0.10186733531905448 0.0 1.2397576750966295 -0.10613038188179394 0.0 0.9132657571739562 -0.09509114134411724 0.0 1.247248301092731 -0.10634085776368776 0.0 1.0780363164014408 -0.10450589733189752 0.0 1.133223760669045 -0.10453480830701006 0.0 0.8640879575553759 -0.09430449910370642 0.0 0.9076243355130591 -0.09678334595221587 0.0 0.6265871529600873 -0.077249505513017 0.0 1.1046333807148834 -0.10697460029967475 0.0 1.2336116266950394 -0.10592319664607523 0.0 1.0693250172093298 -0.10473847684069662 0.0 1.16817490187825 -0.0856567086923421 0.0 1.1934584326038555 -0.10809856969024917 0.0 0.6826950321413207 -0.08109040432299747 0.0 1.1414574640573234 -0.10527177579781997 0.0 0.9397726823004781 -0.09803