<?xml version="1.0"?>
<VTKFile type="UnstructuredGrid"  version="0.1"  >
<UnstructuredGrid>
<Piece  NumberOfPoints="1289" NumberOfCells="2413">
<Points>
<DataArray  type="Float64"  NumberOfComponents="3"  format="ascii">0 0 0  0 0.41 0  2.2 0.41 0  2.2 0 0  0.1 0.1 0  0.1 0.3 0  0.8 0.3 0  0.8 0.1 0  0.25 0.2 0  0.248976 0.210065 0  0.245948 0.219718 0  0.241038 0.228563 0  0.234448 0.23624 0  0.226448 0.242432 0  0.217365 0.246888 0  0.207571 0.249423 0  0.197468 0.249936 0  0.187467 0.248404 0  0.17798 0.24489 0  0.169395 0.239539 0  0.162062 0.232569 0  0.156283 0.224265 0  0.152293 0.214968 0  0.150257 0.205058 0  0.150257 0.194942 0  0.152293 0.185032 0  0.156283 0.175735 0  0.162062 0.167431 0  0.169395 0.160461 0  0.17798 0.15511 0  0.187467 0.151596 0  0.197468 0.150064 0  0.207571 0.150577 0  0.217365 0.153112 0  0.226448 0.157568 0  0.234448 0.16376 0  0.241038 0.171437 0  0.245948 0.180282 0  0.248976 0.189935 0  1.1 0 0  1.1 0.41 0  0.1 0.2 0  0.45 0.1 0  0.45 0.3 0  0.55 0 0  0.275 0.1 0  0.275 0.3 0  0.275 0 0  0.55 0.41 0  0 0.205 0  0.825 0 0  0.825 0.41 0  0.275 0.41 0  0.1 0.15 0  0.1875 0.1 0  0.1 0.25 0  0.1875 0.3 0  0.132322 0.2 0  0.241426 0.253518 0  0.241426 0.146482 0  0.264574 0.17974 0  0.264574 0.22026 0  0.138434 0.187348 0  0.153372 0.150948 0  0.148413 0.164094 0  0.176495 0.136535 0  0.22768 0.143571 0  0.138434 0.212652 0  0.148413 0.235906 0  0.176495 0.263465 0  0.22768 0.256429 0  0.23125 0.3 0  0.24769 0.24094 0  0.23125 0.1 0  0.24769 0.15906 0  0.26253 0.193641 0  0.190482 0.137872 0  0.166753 0.146661 0  0.157737 0.244461 0  0.190482 0.262128 0  0.203107 0.261264 0  0.253635 0.22977 0  0.203107 0.138736 0  0.253635 0.17023 0  0.261028 0.206206 0  0.167707 0.251809 0  0.143629 0.224191 0  0.215302 0.2591 0  0.270465 0.245894 0  0.215302 0.1409 0  0.270465 0.154106 0  0.284052 0.202587 0  0.14375 0.3 0  0.209375 0.3 0  0.225966 0.278501 0  0.209375 0.1 0  0.225966 0.121499 0  0.211613 0.273759 0  0.211613 0.126241 0  0.143629 0.175809 0  0.1 0.175 0  0.133484 0.164832 0  0.144491 0.249539 0  0.1 0.225 0  0.133484 0.235168 0  0.3625 0.3 0  0.25691 0.253381 0  0.25691 0.146619 0  0.277205 0.188698 0  0.184724 0.275712 0  0.237372 0.268285 0  0.184724 0.124288 0  0.237372 0.131715 0  0.197578 0.273149 0  0.193656 0.286994 0  0.197578 0.126851 0  0.193656 0.113006 0  0.122953 0.187671 0  0.118362 0.153758 0  0.155372 0.258107 0  0.122953 0.212329 0  0.118362 0.246242 0  0.276394 0.27264 0  0.276394 0.12736 0  0.280965 0.170013 0  0.253125 0.3 0  0.14375 0.1 0  0.253125 0.1 0  0.269489 0.26014 0  0.269489 0.13986 0  0.303639 0.184297 0  0.165625 0.3 0  0.134742 0.273113 0  0.257831 0.274737 0  0.255279 0.128499 0  0.3625 0.1 0  0.165625 0.1 0  0.162031 0.132368 0  0.134955 0.126405 0  0.149334 0.125568 0  0.142936 0.139597 0  0.12695 0.140259 0  0.242514 0.285501 0  0.242514 0.114499 0  0.1 0.125 0  0.117483 0.12555 0  0.11154 0.139776 0  0.121875 0.1 0  0.109143 0.1125 0  0.126805 0.114 0  0.220313 0.29129 0  0.351562 0.287369 0  0.207222 0.2866 0  0.220312 0.10871 0  0.1375 0 0  0.20625 0 0  0.207222 0.1134 0  0.11722 0.17118 0  0.1 0.1625 0  0.0778409 0.16875 0  0.0862762 0.15625 0  0 0.15375 0  0 0.1025 0  0.11722 0.22882 0  0.1 0.2375 0  0 0.3075 0  0.0862762 0.23125 0  0.0598995 0.222547 0  0.0860223 0.2125 0  0.289584 0.181469 0  0.300267 0.16446 0  0.163832 0.269071 0  0.149597 0.273325 0  0.1 0.275 0  0.268498 0.285953 0  0.31875 0.3 0  0.294154 0.254672 0  0.296875 0.3 0  0.293558 0.271845 0  0.285095 0.286799 0  0.324298 0.264316 0  0.307866 0.263745 0  0.317093 0.234901 0  0.315485 0.281219 0  0.316547 0.250625 0  0.344693 0.243731 0  0.331592 0.251147 0  0.35129 0.270663 0  0.338689 0.263683 0  0.340625 0.3 0  0.249849 0.264383 0  0.265097 0.11422 0  0.284688 0.156136 0  0.242188 0.324017 0  0.0856613 0.2625 0  0.132812 0.0612217 0  0.264062 0.0612217 0  0.198437 0.07598340000000001 0  0.0860223 0.1375 0  0.0794526 0.191089 0  0.285228 0.140397 0  0.298655 0.148737 0  0.31875 0.1 0  0.327335 0.15374 0  0.296875 0.1 0  0.312289 0.155283 0  0.313348 0.135607 0  0.321802 0.173916 0  0.298433 0.134116 0  0.112124 0.2625 0  0.127526 0.259083 0  0.121875 0.3 0  0.0682687 0.241503 0  0.1 0.2875 0  0.117762 0.28125 0  0.107813 0.3 0  0.103906 0.313849 0  0.0778409 0.28125 0  0.1375 0.41 0  0.0862762 0.29375 0  0.08886860000000001 0.24375 0  0.307812 0.338778 0  0.307812 0.292227 0  0.33216 0.279164 0  0.387888 0.266414 0  0.264063 0.31948 0  0.110937 0.07598340000000001 0  0.242188 0.07598340000000001 0  0.319914 0.11839 0  0.340625 0.1 0  0.334448 0.133793 0  0.329687 0.108539 0  0.346259 0.118491 0  0.360334 0.173636 0  0.327539 0.205033 0  0.132812 0.288712 0  0.362436 0.278836 0  0.368105 0.259418 0  0.4125 0.41 0  0.329687 0.324017 0  0.329687 0.292306 0  0.285938 0.318952 0  0.417187 0.338778 0  0.324481 0.14148 0  0.351562 0.106771 0  0.40625 0.1 0  0.341028 0.168342 0  0.319221 0.190479 0  0.335292 0.184501 0  0.305563 0.20794 0  0.220313 0.31948 0  0.132812 0.332772 0  0.0865876 0.311259 0  0.0598995 0.302453 0  0.0906541 0.343255 0  0.353543 0.255837 0  0.36574 0.237633 0  0.405007 0.254279 0  0.275795 0.352123 0  0.4125 0 0  0.35493 0.137394 0  0.366563 0.120618 0  0.35917 0.205246 0  0.198438 0.318952 0  0.0626109 0.263892 0  0.40625 0.3 0  0.354809 0.155936 0  0.386512 0.146872 0  0.373101 0.159939 0  0.384375 0.1 0  0.343394 0.19929 0  0.350682 0.185683 0  0.368101 0.189748 0  0.344016 0.221511 0  0.391108 0.213329 0  0.376279 0.204783 0  0.398843 0.182768 0  0.375804 0.222746 0  0.390665 0.196958 0  0.394004 0.23518 0  0.359883 0.222828 0  0.419908 0.204359 0  0.404243 0.204783 0  0.412615 0.224526 0  0.20625 0.41 0  0.165625 0.325257 0  0.0347982 0.244954 0  0.379558 0.247154 0  0.34165 0.147603 0  0.372264 0.136992 0  0.388988 0.121989 0  0.373437 0.108554 0  0.351562 0.31948 0  0.391367 0.16527 0  0.399572 0.223324 0  0.452011 0.227371 0  0.40877 0.239392 0  0.431491 0.237337 0  0.421224 0.250459 0  0.449619 0.262098 0  0.418865 0.276779 0  0.437063 0.252274 0  0.415673 0.263227 0  0.430988 0.266772 0  0.402767 0.273419 0  0.452967 0.244883 0  0.428125 0.3 0  0.408502 0.286186 0  0.384375 0.3 0  0.392267 0.285807 0  0.465927 0.219339 0  0.43489 0.283846 0  0.376424 0.286289 0  0.625 0.3 0  0.473533 0.205186 0  0.461713 0.255517 0  0.5375 0.3 0  0.465725 0.235405 0  0.44631 0.201425 0  0.471875 0.3 0  0.494307 0.227729 0  0.459448 0.206736 0  0.462294 0.180792 0  0.478933 0.227536 0  0.486793 0.21381 0  0.486322 0.251373 0  0.50065 0.215318 0  0.54005 0.175389 0  0.474633 0.189893 0  0.512916 0.208697 0  0.49531 0.199967 0  0.475889 0.175275 0  0.625 0.1 0  0.459311 0.153933 0  0.513645 0.242704 0  0.392892 0.248539 0  0.374815 0.271913 0  0.365974 0.14871 0  0.395312 0.109184 0  0.417061 0.123981 0  0.483196 0.277003 0  0.381967 0.179632 0  0.429898 0.219374 0  0.433473 0.206165 0  0.43149 0.181038 0  0.444208 0.215487 0  0.472985 0.247309 0  0.49375 0.3 0  0.475579 0.262714 0  0.49916 0.274293 0  0.501175 0.184809 0  0.514164 0.225681 0  0.543648 0.214977 0  0.5341630000000001 0.23481 0  0.527396 0.216171 0  0.5375 0.1 0  0.534548 0.202315 0  0.561545 0.192513 0  0.5494289999999999 0.201221 0  0.570923 0.218346 0  0.412582 0.149833 0  0.489327 0.264745 0  0.502439 0.254775 0  0.462391 0.271166 0  0.496775 0.241732 0  0.5294410000000001 0.268606 0  0.482812 0.291099 0  0.46879 0.285038 0  0.452663 0.284065 0  0.51789 0.257882 0  0.53408 0.252026 0  0.560142 0.243543 0  0.545708 0.243474 0  0.547532 0.229019 0  0.55282 0.265323 0  0.398971 0.153424 0  0.400349 0.135684 0  0.410135 0.168145 0  0.428823 0.161323 0  0.415266 0.183779 0  0.329687 0.0810483 0  0.395312 0.0612217 0  0.373437 0.318952 0  0.439062 0.324017 0  0.561816 0.229354 0  0.585029 0.239287 0  0.431827 0.139854 0  0.446796 0.168929 0  0.351562 0.07598340000000001 0  0.395313 0.318944 0  0.54337 0.150762 0  0.460937 0.31948 0  0.418412 0.137529 0  0.428125 0.1 0  0.442783 0.152332 0  0.450742 0.134294 0  0.373437 0.0805201 0  0.384383 0.342558 0  0.482812 0.318952 0  0.429239 0.127457 0  0.444274 0.117405 0  0.426548 0.113815 0  0.49375 0.1 0  0.488954 0.113984 0  0.457973 0.121842 0  0.471621 0.137346 0  0.515625 0.325257 0  0.48125 0.41 0  0.417187 0.07598340000000001 0  0.496363 0.126778 0  0.479043 0.155715 0  0.439062 0.0805201 0  0.481795 0.126919 0  0.471875 0.1 0  0.489227 0.142159 0  0.515625 0.1 0  0.520062 0.147117 0  0.501244 0.161791 0  0.505431 0.112984 0  0.505344 0.14029 0  0.526563 0.119081 0  0.5181750000000001 0.131908 0  0.539868 0.136937 0  0.460937 0.108383 0  0.474242 0.114415 0  0.460937 0.0810483 0  0.487841 0.167168 0  0.526563 0.0612217 0  0.526563 0.106406 0  0.537619 0.112743 0  0.58125 0.1 0  0.559375 0.1 0  0.482812 0.08105569999999999 0  0.471883 0.0587655 0  0.570312 0.129396 0  0.548437 0.07598340000000001 0  0.504687 0.08105569999999999 0  0.49375 0.0470127 0  0.570312 0.112663 0  0.592798 0.12103 0  0.553986 0.12103 0  0.570312 0.0805201 0  0.48125 0 0  0.114787 0.2 0  0.160769 0.284765 0  0.175816 0.288361 0  0.162602 0.116048 0  0.154687 0.07598340000000001 0  0.176562 0.0805201 0  0.0598995 0.147547 0  0.307812 0.109924 0  0.291279 0.117157 0  0.278491 0.112989 0  0.285937 0.07598340000000001 0  0.307812 0.0805201 0  0.296928 0.196743 0  0.318141 0.218507 0  0.330208 0.227509 0  0.301397 0.225668 0  0.302706 0.241401 0  0.292574 0.21424 0  0.282762 0.230935 0  0.284351 0.244775 0  0.269553 0.23261 0  0.278572 0.217242 0  0.226924 0.342606 0  0.446928 0.185396 0  0.515625 0.3 0  0.504687 0.288879 0  0.515256 0.276534 0  0.529479 0.285328 0  0.58125 0.3 0  0.541969 0.272936 0  0.559375 0.3 0  0.556796 0.282529 0  0.543473 0.287206 0  0.581429 0.267774 0  0.566728 0.271171 0  0.570869 0.255585 0  0.577404 0.283865 0  0.603125 0.3 0  0.597531 0.28035 0  0.570312 0.338778 0  0.592188 0.292492 0  0.603513 0.256094 0  0.614063 0.286265 0  0.610329 0.27064 0  0.632708 0.251285 0  0.657223 0.261594 0  0.618789 0.257807 0  0.614188 0.22987 0  0.630935 0.265614 
[...]
<PointData  Vectors="v"> 
	<DataArray  type="Float64"  Name="v"  NumberOfComponents="3" format="ascii">
0.0 0.0 0.0 0.0 0.0 0.0 0.0 0.0 0.0 0.0 0.0 0.0 0.7962251542408025 -0.19597007652294457 0.0 0.8404138405773964 0.20777925749202816 0.0 1.1695707553903383 -0.05992903069852177 0.0 1.1356929691449342 0.05527772543410588 0.0 0.0 0.0 0.0 0.0 0.0 0.0 0.0 0.0 0.0 0.0 0.0 0.0 0.0008420965048193086 0.0007703575563921987 0.0 -0.0004168397231167604 -0.0008579218328340411 0.0 0.00027005976929348814 0.00048011609631503526 0.0 0.0 0.0 0.0 0.0 0.0 0.0 0.0 0.0 0.0 0.0 0.0 0.0 0.0 0.0 0.0 0.0 0.0 0.0 0.0 0.0 0.0 0.0 0.0 0.0 0.0 0.0 0.0 0.0 0.0 0.0 0.0 0.0 0.0 0.0 0.0 0.0 0.0 0.0 0.0 0.0 0.0 0.0 0.0 0.0 0.0 0.0 0.0 0.0 0.0 0.0 0.0 0.0 0.0 0.0 0.0007268388169840664 -0.0012621156527580608 0.0 0.0011566705365325378 -0.0018685374318166289 0.0 0.0008600700324975604 -0.0008154526331478366 0.0 0.0 0.0 0.0 0.0 0.0 0.0 0.0 0.0 0.0 0.0 0.0 0.0 0.0 0.0 0.0 0.7613290399961515 -0.0012623412554793381 0.0 1.275578737708727 0.08276902778055256 0.0 1.266226360485333 -0.07751877346100107 0.0 0.0 0.0 0.0 1.353600768899168 -0.13303006708962672 0.0 1.3582197964108913 0.1548199810914028 0.0 0.0 0.0 0.0 0.0 0.0 0.0 1.0 0.0 0.0 0.0 0.0 0.0 0.0 0.0 0.0 0.0 0.0 0.0 0.8425890604843236 -0.23186837550142678 0.0 1.1513656367210519 -0.3443105516395333 0.0 0.8637875138948454 0.22932402871090474 0.0 1.1663141908854584 0.3541099974764081 0.0 0.4282362194674926 -0.00394182487158512 0.0 0.16461001009874376 0.062273923481495574 0.0 0.1703882409930159 -0.0611336850411936 0.0 -0.0275151715585081 -0.038298452582710425 0.0 -0.025929035609624076 0.03642088457332776 0.0 0.33437345211520625 -0.2798124130893178 0.0 0.8578772529972851 -0.6734359081972049 0.0 0.6399803858938309 -0.6881247298845519 0.0 1.2061236404019553 -0.6132755369880406 0.0 0.4150378331503467 -0.06945652647790958 0.0 0.3304528779199895 0.26877893463972974 0.0 0.6428464593404051 0.6693536861183066 0.0 1.185172105189296 0.615406575486603 0.0 0.4084532153648911 0.07118424013575696 0.0 1.313284019404881 0.2608657669064874 0.0 0.32396945189609494 0.25266642755544266 0.0 1.3025893897954648 -0.24055937446957554 0.0 0.31480494120395 -0.23944865848831984 0.0 -0.033521678813746854 -0.016894936264541673 0.0 1.124888906362892 -0.3987387740335524 0.0 1.0931804208578229 -0.7243198026175958 0.0 0.8520766253447655 0.7707714540224759 0.0 1.13138456319249 0.39957125997052406 0.0 0.7593698621957751 0.1860496256973469 0.0 0.10883715194228417 0.05158396149948885 0.0 0.7693694624117849 -0.18186580879015213 0.0 0.11125178519677498 -0.04990390430358065 0.0 -0.029570956688652866 0.01918169365371593 0.0 1.0275305715577434 0.7189044546588285 0.0 0.4423942645805084 0.5292284857126439 0.0 0.45819990359182283 0.17802574818657346 0.0 0.2716042268069551 0.06915026040705888 0.0 0.46388259130380843 -0.1732973618952728 0.0 0.27737585985117963 -0.06469609847026626 0.0 -0.07515604162766026 0.002413936807994826 0.0 0.9654951625438692 0.3174294732643777 0.0 1.2606076395669823 0.31320804912733247 0.0 1.2452484762966727 0.28886935502115735 0.0 1.2347828746107197 -0.3076451004327275 0.0 1.2477047116589672 -0.2810189884772667 0.0 1.2202418493230403 0.33108888156111854 0.0 1.2260611504828554 -0.32259818163365644 0.0 0.44287602953193295 -0.5445393934943907 0.0 0.8020132497796778 -0.13960609780684596 0.0 0.6714998749324393 -0.4196682117392931 0.0 0.87738479479965 0.593872760653299 0.0 0.7993095313061912 0.14282802211684234 0.0 0.6765030774318047 0.420182690895521 0.0 1.2928578935048571 -0.007281183107414647 0.0 0.29331313646815377 0.14460047554851954 0.0 0.2948499695173896 -0.13442719971902875 0.0 -0.05439669442993073 -0.012824584105652643 0.0 1.2650955800098158 0.4718513187810874 0.0 0.7687987060873784 0.1207688683212021 0.0 1.2610921869639695 -0.47325855552988744 0.0 0.7889899174438879 -0.1156618698074993 0.0 1.2756419617407242 0.4181152342966716 0.0 1.254043896939001 0.4011627197044852 0.0 1.271536554087141 -0.41419561363860896 0.0 1.2446532411192097 -0.38109156441540937 0.0 0.5835232523876311 -0.16049600097438452 0.0 0.7964249933747574 -0.3317827644259369 0.0 1.0104531108062675 0.6038288416729268 0.0 0.5917547308162703 0.15064047515284903 0.0 0.812570155049942 0.33173112158772045 0.0 0.7459584831615282 0.08085906019984791 0.0 0.7825725201299953 -0.07301918836103928 0.0 0.0522819791784987 -0.021978032373441106 0.0 1.3635140066400473 0.20743553765145012 0.0 0.9298043231351847 -0.3222052949575619 0.0 1.3445008153465798 -0.19006639001308562 0.0 0.40935375825290204 0.09096365074822887 0.0 0.42720060465349347 -0.07826023946320165 0.0 -0.05458734604828948 -0.00800943814092441 0.0 1.0573844660406815 0.35402447378058527 0.0 0.9431743172518121 0.3914990313637579 0.0 0.922353271323965 0.11233263255862164 0.0 0.8241261801535391 -0.08694884916581905 0.0 1.3067088555356203 0.016574151018777815 0.0 1.0274837742086211 -0.34517261891951057 0.0 1.0744669631099684 -0.5703000648906721 0.0 0.9301161773816894 -0.3893703371827336 0.0 0.997445876763311 -0.4386251781672702 0.0 0.9329115724346743 -0.5428005642941148 0.0 0.8655181076065473 -0.40647301320863816 0.0 1.2733986781037048 0.23287492424514017 0.0 1.2715201789902704 -0.21962149548598509 0.0 0.8526476261100886 -0.23561188842127054 0.0 0.8790378417557675 -0.30993073877640165 0.0 0.8528853186058949 -0.2990221098466698 0.0 0.8513952402356894 -0.2563823771172126 0.0 0.8542008424635081 -0.252760931094152 0.0 0.8962588162462506 -0.3194444058532002 0.0 1.3293125198335196 0.31561853993328737 0.0 1.0848022397012023 -0.002499692463204989 0.0 1.3146525502721207 0.3623921101683174 0.0 1.3212594595669165 -0.2960455725650243 0.0 0.0 0.0 0.0 0.0 0.0 0.0 1.2993738962129475 -0.3494437787942934 0.0 0.7142370011500984 -0.26728695817554077 0.0 0.8203854942988696 -0.21074073822012168 0.0 0.8711687333575443 -0.11073638706418425 0.0 0.862436702355669 -0.16374767316812566 0.0 0.9375 0.0 0.0 0.7500000000000001 0.0 0.0 0.7224808141222075 0.26533715989921125 0.0 0.824043846658916 0.20017109710555653 0.0 0.7499999999999999 0.0 0.0 0.8697208810596264 0.12784625161898178 0.0 0.9287140830575392 0.04285044359206742 0.0 0.8481128934480174 0.045091785725949726 0.0 -0.034909885470210636 -0.011451789177069342 0.0 0.09151481041131447 -0.017430796267262315 0.0 1.1150412391731852 0.5548102276829107 0.0 1.0190353218581967 0.4731769020766754 0.0 0.8809804702805195 0.24549650372105464 0.0 1.200168080888198 0.1390435755001879 0.0 1.328942630217002 0.059775422017399465 0.0 0.3522723004125204 0.0380547594710436 0.0 1.3562237709503386 0.10285545192774152 0.0 0.7141492293637487 0.053777591010976664 0.0 1.171289086241125 0.10022010560458697 0.0 0.5148879820320751 0.015832531627864747 0.0 0.49646233159425157 0.030055119299423682 0.0 0.06996329659346 0.013432730368814948 0.0 0.956869889668454 0.03450655254951983 0.0 0.2573774360992119 0.022180190533393575 0.0 0.1635409664590683 0.008482799383227222 0.0 0.2679403305611555 0.014615109427432143 0.0 0.6669609569633883 -0.004872555353630807 0.0 0.49865184105619376 0.0069748594942014965 0.0 1.3158652655789558 0.019244554809787193 0.0 0.5424849784807058 0.062100843711033575 0.0 1.2301083670860395 -0.1420346899788447 0.0 0.20221465800126234 -0.037519500037360466 0.0 1.205827729235988 0.17354722849530113 0.0 0.8828295539506592 0.17976363726593592 0.0 0.7011054275457268 -0.16794245983317627 0.0 1.115534478558998 -0.09424442571718677 0.0 1.0385057893260414 -0.22374754653785892 0.0 0.8637454299884657 -0.1826332840278433 0.0 0.8754189498969699 -0.02557282909514149 0.0 0.43955333640315825 -0.04808556482693274 0.0 0.29062027328326806 -0.03299312767393282 0.0 1.328886431887441 -0.04192112205982965 0.0 0.20852597435391318 -0.01340065822883057 0.0 1.3553657123755463 -0.08637589962254257 0.0 0.1915614545963821 -0.018958306903987535 0.0 0.5355802587619819 -0.015662585795638808 0.0 -0.0015750124852243871 -0.011126720446272031 0.0 0.5722395333476833 -0.03144412448592574 0.0 0.8789028052983375 0.2971849280685895 0.0 0.8795753076683077 0.41080557716078436 0.0 0.8851072033671198 0.2703576226700412 0.0 0.912222257906566 0.1098681666623864 0.0 0.8651877168784763 0.223316638933252 0.0 0.9047408880349018 0.3037464048522254 0.0 0.8572482366848873 0.23354221985925405 0.0 0.8020362803821297 0.18339821779665644 0.0 0.8670606295295452 0.16154825428792574 0.0 0.0 0.0 0.0 0.8415250758407948 0.17671229024614832 0.0 0.8706612131022725 0.17104985701783806 0.0 1.2131221601734439 0.049717411980003824 0.0 1.237734576728918 0.06493410001098046 0.0 0.8904956851171344 0.013190088452277605 0.0 0.5943810098519224 -0.026089216253505118 0.0 1.2798910089058202 0.14705533981689678 0.0 0.7176061991705708 -0.17370993576811466 0.0 1.1779558397648038 -0.1645539078457226 0.0 0.9984898531092518 -0.01980972366673195 0.0 1.3234708887873599 -0.0077723658577748805 0.0 0.5854088611238442 -0.00012033999408943286 0.0 1.2203145653208711 -0.012635477687195194 0.0 0.9832938747794263 0.009186031405327413 0.0 -0.00455351764836838 -0.007044900986369052 0.0 -0.09618422236281651 0.0011370604807900907 0.0 0.944874956381902 0.3412544080896324 0.0 0.8780907089114984 -0.018505737844402244 0.0 0.4278108642003929 -0.008256850701747748 0.0 0.0 0.0 0.0 1.3286497890532527 0.03743448986541365 0.0 1.2127813360391135 0.024896859915830107 0.0 1.3172665298177528 0.11455805683611263 0.0 1.2523066175739535 -0.044403701641933795 0.0 0.4135525344920607 -0.01374672518314942 0.0 1.2281745555239532 0.010449382481327419 0.0 1.2910998076363382 0.05676570012808802 0.0 0.04102068497827571 -0.00978106079094944 0.0 -0.08255252922810016 -0.005105068929633911 0.0 -0.06769629591514599 -0.007458297027143843 0.0 -0.08123122889424597 0.003048829476624888 0.0 1.1858440169675097 0.21970626283624195 0.0 0.7774617937652847 0.19848791054130294 0.0 0.7779199968355341 0.15424298752142432 0.0 0.7857401947465981 0.10691561724857557 0.0 0.6205797733177477 0.1109886595450705 0.0 0.35324492726928913 0.0013877245259951922 0.0 0.09344315145858297 0.003775410831078922 0.0 0.3649982359148996 -0.02078841111426204 0.0 1.0719757432992552 0.0767063162406361 0.0 0.0 0.0 0.0 0.5197474504641945 0.011378356104349898 0.0 0.9316730333202698 0.029137971197584146 0.0 -0.10940364961764164 0.0005040302994165038 0.0 1.0970419128530646 0.26703245760380306 0.0 0.9003364514289829 0.11240843895501197 0.0 1.280404824496203 -0.04965691699500141 0.0 0.18669092086334865 -0.0036744654337084897 0.0 0.35867274958015294 0.017703979698767212 0.0 0.14300185376259794 8.597347240922148e-05 0.0 1.3028546169525108 0.039166747009635634 0.0 -0.10614931894844097 -0.001620378907059114 0.0 -0.07755422938036918 -0.00655759848820903 0.0 -0.09779786060208703 -0.004644948813307004 0.0 -0.04352178373504636 0.006942682340439949 0.0 -0.09553998650984079 0.0008669628220971692 0.0 -0.11587250334877995 -9.048974875013766e-05 0.0 -0.06689257666394671 -0.0022201019078401337 0.0 -0.041358833828940636 0.0032996116906295688 0.0 -0.1197101596248226 -0.002207846441689571 0.0 0.07531817285502042 -0.0021910041179798835 0.0 -0.03880197735570551 0.005570152272355349 0.0 -0.12309583973192893 -0.0013933177909159255 0.0 -0.121770267409536 -0.0009655371142779583 0.0 -0.02376889669250754 -0.002684326451333774 0.0 0.0 0.0 0.0 0.9464380538130357 0.25546810198530395 0.0 0.9513526616440555 0.04010955045418845 0.0 0.22496381723613765 -0.004549792173200538 0.0 0.30858955096916285 -0.004485165446719519 0.0 0.5441454120564206 0.020861449953987452 0.0 0.91207590482173 0.042889261433836756 0.0 1.1918880638604759 0.03447395118790628 0.0 1.35369532215133 0.014570324541720189 0.0 0.08797053733161586 0.0020902297648197074 0.0 -0.03590955928690708 -0.00012356500413843828 0.0 0.02255596837635358 -0.012022001910418594 0.0 0.13541439032237773 -0.008986855484838756 0.0 0.12552683530425424 -0.014127337885118212 0.0 0.31551079074711835 -0.023555199480449273 0.0 0.5752095679835383 -0.051252998995786156 0.0 0.8596225037505911 -0.05268404945284856 0.0 0.36673318259046356 -0.03209254933436586 0.0 0.5553244561462494 -0.036112781030905705 0.0 0.6505882971995802 -0.04806958132882963 0.0 0.7703450218930286 -0.04129848962524979 0.0 0.25902084708820255 -0.02861391449942428 0.0 1.2728399073383125 -0.06479462130988858 0.0 1.0587028878182472 -0.05204671392199136 0.0 1.2866285018910255 -0.02923504539951324 0.0 1.0492040961380096 -0.03991055026296371 0.0 -0.04297200377187383 -0.009208979918765037 0.0 1.027202373527541 -0.0672506604748974 0.0 1.060352447462411 -0.03024272031707754 0.0 1.2261860202926445 -0.10293854705582307 0.0 -0.10892734097818443 -0.002613930181768047 0.0 0.46027980278472247 -0.04601814091894596 0.0 1.2509581882772773 -0.10540638183838377 0.0 0.131390606336153 -0.022145101756944677 0.0 -0.12211541499888198 -0.0011878027161836841 0.0 1.261414909523087 -0.08748008069125338 0.0 0.06285104797007725 -0.021471970100584926 0.0 -0.11161877274772064 -0.0029111618295104267 0.0 -0.026422489002150305 0.009641110370802822 0.0 0.045417256400079216 -0.01809576697759422 0.0 -0.06790904276824282 -0.008429536505294611 0.0 0.41827912896813785 -0.049313504739116665 0.0 -0.047919341289427674 -0.011171635711086501 0.0 0.11244046996862726 0.02980729060703791 0.0 -0.08252058174446558 0.005296395364745233 0.0 -0.07310586160929317 -0.006751113769658503 0.0 -0.09967709709956883 0.00022273319645725525 0.0 0.03929283082260713 0.016801219481323272 0.0 1.2161915916935397 0.1030564309582564 0.0 0.3273662058509427 0.03710310601074358 0.0 0.30399513282352075 -0.04508639066066716 0.0 0.255832532830297 -0.010379095263928778 0.0 0.7083361846292622 -0.02076656728531815 0.0 0.306045986372543 0.005546337549954476 0.0 1.1764464597731485 0.05285014309952974 0.0 0.8886378817423156 0.060816521981665546 0.0 0.9290277929796835 -0.08298010561755252 0.0 -0.047865597705777314 -0.0042976241770378825 0.0 -0.058896990230553545 -0.004017370911013454 0.0 -0.11912945509229947 -0.0018276730156049283 0.0 -0.04585187397771161 0.003778171025212049 0.0 -0.07966613289224206 -0.004576735796626416 0.0 0.32565388940231205 -0.03892428751647838 0.0 1.2580254876935868 -0.09354899598549081 0.0 0.6259435188419727 -0.061924149146705916 0.0 0.8933580038960796 -0.0860297775639853 0.0 -0.02902667081321602 0.012405645272622237 0.0 0.06034945296997412 -0.02333477770655075 0.0 -0.00808670828188065 -0.015376294357309611 0.0 0.20758603641765863 -0.038981161353258756 0.0 -0.01694040651889439 -0.014993478361986215 0.0 1.2534629668659916 0.10621298673292304 0.0 -0.06711891236169612 -0.0015001145192983763 0.0 -0.014911174309709554 0.010348271030763705 0.0 -0.05175508708607788 -0.00033084699476836825 0.0 0.05364779078703428 -0.022019720308982856 0.0 0.3369664198755469 0.02442108705028295 0.0 0.6877742163242976 -0.0703246148863774 0.0 0.5068914346735294 -0.060083441750119586 0.0 0.7868562016772838 -0.06856949535809692 0.0 0.26416313289109555 -0.038749762949928934 0.0 0.8185835809789518 -0.08772098550939392 0.0 1.1662696268055583 -0.09114063713188832 0.0 1.0674028328719198 -0.08380273551728179 0.0 1.0407285846053773 -0.07533390199422342 0.0 0.5914636355396369 -0.06968068493107338 0.0 0.5027704580220436 -0.06470251458839403 0.0 0.38969923850210125 -0.057559686195415745 0.0 0.3652462121073685 -0.05430200410636708 0.0 0.1433623120511557 -0.03336548960654232 0.0 0.7859109501493933 -0.08827490779155983 0.0 0.2593988236330188 0.014557554148242443 0.0 0.6064730947790166 0.037690186649109184 0.0 0.06675029007297172 0.005792296143503429 0.0 0.17125025661788323 0.01753152097570648 0.0 -0.0705169878426509 3.7219089269763975e-05 0.0 1.3327057217974174 -0.024463181897627036 0.0 1.2179744514731259 0.04107409015532429 0.0 1.3551359755689665 -0.012143346183101682 0.0 1.326580719368633 -0.063231659380469 0.0 0.16804068954180246 -0.0361984301681395 0.0 0.355677968021498 -0.05474974245122258 0.0 0.5583654436287446 0.04654874551128213 0.0 0.08691874767912 0.015209414889159929 0.0 1.3082194923687247 0.004009674284268659 0.0 1.34818162492428 -0.03305235027326756 0.0 0.5176079774975997 0.06826824158574739 0.0 1.3269691303884779 -0.0766950894328741 0.0 0.5882738294039759 0.043076634606315944 0.0 1.2823694394511242 0.07181440988426824 0.0 0.3324062671010398 0.033300195777021785 0.0 0.7037190678332705 0.06352913295545776 0.0 1.334718801641233 0.02407164816173288 0.0 1.2311714581753657 -0.024254243810874387 0.0 1.3176179497012002 -0.08667846837640569 0.0 0.8245544565110386 0.06116732786995445 0.0 1.0474937574225462 0.07877928143098532 0.0 1.1067015166468697 0.07218490803265741 0.0 1.2668262759580162 0.09851084737853141 0.0 1.1284072557683253 0.09720348500742382 0.0 0.9745198922459523 0.08107464834213891 0.0 0.6684202186293908 0.06706316313887214 0.0 1.2732391755991275 -0.08987672994398625 0.0 0.0 0.0 0.0 1.3080234469538112 0.05773458332194878 0.0 0.9166837909958443 0.08939956507093648 0.0 0.3250391589246578 0.04159911883270919 0.0 1.3159780557963818 0.07154992062444321 0.0 0.8990643196485653 0.08514913242524318 0.0 1.27068403743738 0.09122147623245815 0.0 0.5978251510877939 0.06594681073228334 0.0 1.261925113602324 0.1036647323765327 0.0 0.5489727108534553 0.06785572924090408 0.0 0.25567558600172713 0.039823385138619646 0.0 1.1465169063492333 0.1015398450091618 0.0 0.6611311895727054 0.07449057983087767 0.0 1.0722948406054527 0.1033567470982186 0.0 0.8443729729126725 0.09035792135512924 0.0 0.7755563733935689 0.08854240551628097 0.0 1.1954697481695507 0.0885819249231175 0.0 1.1158818999509692 0.09173235910566775 0.0 1.3063261872910685 0.08185141334268388 0.0 0.15553652007324723 0.02840859362787985 0.0 1.1522521505939791 0.07918515032611506 0.0 1.2164276092736874 0.10656097181485544 0.0 1.157272754785121 0.10753164172643588 0.0 1.2336419862237848 0.10735628894864864 0.0 1.2437047986651788 0.1083804125554038 0.0 1.2912993538505393 0.08707634135895581 0.0 1.1833424953037934 0.06845189631888536 0.0 0.9449974725204333 0.10138468970007106 0.0 1.2292949547677605 0.09267021059194004 0.0 1.279127362986567 0.09073778917590097 0.0 1.045249648469017 0.06530977883800361 0.0 1.1623657220834482 0.10967007940760566 0.0 1.0792867461400921 0.10815890523804801 0.0 1.0596219357102314 0.10616023984402123 0.0 1.2323777994684575 0.09701065608829898 0.0 0.0 0.0 0.0 0.6445065147996363 -0.005560827487410085 0.0 1.0778552306693212 0.43426351469061514 0.0 1.1669286510892791 0.4222725307770643 0.0 1.0822327391353572 -0.4267561825319688 0.0 0.8655853682016288 -0.22700964902830337 0.0 0.9788652711699223 -0.25550156216578923 0.0 0.8923669522088297 -0.08498085716121999 0.0 1.2227580412494234 -0.05228722653455912 0.0 1.0813788716573376 -0.06399342757049312 0.0 1.198698154117186 -0.10446037042105656 0.0 1.2651547596035313 -0.08456406159204632 0.0 1.3153380118434819 -0.053730027274761796 0.0 -0.08326253608709008 -0.002454563120041472 0.0 -0.05032126783460175 0.007700627213147539 0.0 0.0008839256413492542 0.010010228555572846 0.0 0.0007412697276132973 0.012088708882140704 0.0 0.14697428794880615 0.026861875306889986 0.0 -0.057139513173438405 0.008285760247010486 0.0 0.061301101238272905 0.02198175674662823 0.0 0.21711593266373955 0.037173397435432506 0.0 0.08494068171316929 0.03827636387122108 0.0 -0.03612210010734063 0.015142184366909558 0.0 1.03484903459665 0.16076288616954215 0.0 -0.07020743193203825 0.004280984590851867 0.0 1.2547446746975237 -0.10051647146404885 0.0 1.142179003475561 -0.09822858049630369 0.0 0.9510784186891253 -0.09252020206325232 0.0 1.1042812290715556 -0.10209085443702264 0.0 1.2395514289091318 -0.10626273362567032 0.0 0.9135426364418494 -0.09538545743633613 0.0 1.2471539098585902 -0.10651785844387174 0.0 1.0781342731793138 -0.10477984495907627 0.0 1.1333346026172726 -0.10477323298978576 0.0 0.8641571536326268 -0.0946884063350787 0.0 0.9077784114135978 -0.0971401809596606 0.0 0.6268178273852248 -0.07772907980321411 0.0 1.104582979547268 -0.10723337810357779 0.0 1.233277304697756 -0.10598175987456718 0.0 1.0691292936916676 -0.1049715852910684 0.0 1.1679657832230073 -0.08569589505038762 0.0 1.1932225467732809 -0.10825534213010202 0.0 0.682583521848142 -0.08158336922694297 0.0 1.1410767925277507 -0.10536785035359618 0.0 0.939508101821986