<?xml version="1.0"?>
<VTKFile type="UnstructuredGrid"  version="0.1"  >
<UnstructuredGrid>
<Piece  NumberOfPoints="1289" NumberOfCells="2413">
<Points>
<DataArray  type="Float64"  NumberOfComponents="3"  format="ascii">0 0 0  0 0.41 0  2.2 0.41 0  2.2 0 0  0.1 0.1 0  0.1 0.3 0  0.8 0.3 0  0.8 0.1 0  0.25 0.2 0  0.248976 0.210065 0  0.245948 0.219718 0  0.241038 0.228563 0  0.234448 0.23624 0  0.226448 0.242432 0  0.217365 0.246888 0  0.207571 0.249423 0  0.197468 0.249936 0  0.187467 0.248404 0  0.17798 0.24489 0  0.169395 0.239539 0  0.162062 0.232569 0  0.156283 0.224265 0  0.152293 0.214968 0  0.150257 0.205058 0  0.150257 0.194942 0  0.152293 0.185032 0  0.156283 0.175735 0  0.162062 0.167431 0  0.169395 0.160461 0  0.17798 0.15511 0  0.187467 0.151596 0  0.197468 0.150064 0  0.207571 0.150577 0  0.217365 0.153112 0  0.226448 0.157568 0  0.234448 0.16376 0  0.241038 0.171437 0  0.245948 0.180282 0  0.248976 0.189935 0  1.1 0 0  1.1 0.41 0  0.1 0.2 0  0.45 0.1 0  0.45 0.3 0  0.55 0 0  0.275 0.1 0  0.275 0.3 0  0.275 0 0  0.55 0.41 0  0 0.205 0  0.825 0 0  0.825 0.41 0  0.275 0.41 0  0.1 0.15 0  0.1875 0.1 0  0.1 0.25 0  0.1875 0.3 0  0.132322 0.2 0  0.241426 0.253518 0  0.241426 0.146482 0  0.264574 0.17974 0  0.264574 0.22026 0  0.138434 0.187348 0  0.153372 0.150948 0  0.148413 0.164094 0  0.176495 0.136535 0  0.22768 0.143571 0  0.138434 0.212652 0  0.148413 0.235906 0  0.176495 0.263465 0  0.22768 0.256429 0  0.23125 0.3 0  0.24769 0.24094 0  0.23125 0.1 0  0.24769 0.15906 0  0.26253 0.193641 0  0.190482 0.137872 0  0.166753 0.146661 0  0.157737 0.244461 0  0.190482 0.262128 0  0.203107 0.261264 0  0.253635 0.22977 0  0.203107 0.138736 0  0.253635 0.17023 0  0.261028 0.206206 0  0.167707 0.251809 0  0.143629 0.224191 0  0.215302 0.2591 0  0.270465 0.245894 0  0.215302 0.1409 0  0.270465 0.154106 0  0.284052 0.202587 0  0.14375 0.3 0  0.209375 0.3 0  0.225966 0.278501 0  0.209375 0.1 0  0.225966 0.121499 0  0.211613 0.273759 0  0.211613 0.126241 0  0.143629 0.175809 0  0.1 0.175 0  0.133484 0.164832 0  0.144491 0.249539 0  0.1 0.225 0  0.133484 0.235168 0  0.3625 0.3 0  0.25691 0.253381 0  0.25691 0.146619 0  0.277205 0.188698 0  0.184724 0.275712 0  0.237372 0.268285 0  0.184724 0.124288 0  0.237372 0.131715 0  0.197578 0.273149 0  0.193656 0.286994 0  0.197578 0.126851 0  0.193656 0.113006 0  0.122953 0.187671 0  0.118362 0.153758 0  0.155372 0.258107 0  0.122953 0.212329 0  0.118362 0.246242 0  0.276394 0.27264 0  0.276394 0.12736 0  0.280965 0.170013 0  0.253125 0.3 0  0.14375 0.1 0  0.253125 0.1 0  0.269489 0.26014 0  0.269489 0.13986 0  0.303639 0.184297 0  0.165625 0.3 0  0.134742 0.273113 0  0.257831 0.274737 0  0.255279 0.128499 0  0.3625 0.1 0  0.165625 0.1 0  0.162031 0.132368 0  0.134955 0.126405 0  0.149334 0.125568 0  0.142936 0.139597 0  0.12695 0.140259 0  0.242514 0.285501 0  0.242514 0.114499 0  0.1 0.125 0  0.117483 0.12555 0  0.11154 0.139776 0  0.121875 0.1 0  0.109143 0.1125 0  0.126805 0.114 0  0.220313 0.29129 0  0.351562 0.287369 0  0.207222 0.2866 0  0.220312 0.10871 0  0.1375 0 0  0.20625 0 0  0.207222 0.1134 0  0.11722 0.17118 0  0.1 0.1625 0  0.0778409 0.16875 0  0.0862762 0.15625 0  0 0.15375 0  0 0.1025 0  0.11722 0.22882 0  0.1 0.2375 0  0 0.3075 0  0.0862762 0.23125 0  0.0598995 0.222547 0  0.0860223 0.2125 0  0.289584 0.181469 0  0.300267 0.16446 0  0.163832 0.269071 0  0.149597 0.273325 0  0.1 0.275 0  0.268498 0.285953 0  0.31875 0.3 0  0.294154 0.254672 0  0.296875 0.3 0  0.293558 0.271845 0  0.285095 0.286799 0  0.324298 0.264316 0  0.307866 0.263745 0  0.317093 0.234901 0  0.315485 0.281219 0  0.316547 0.250625 0  0.344693 0.243731 0  0.331592 0.251147 0  0.35129 0.270663 0  0.338689 0.263683 0  0.340625 0.3 0  0.249849 0.264383 0  0.265097 0.11422 0  0.284688 0.156136 0  0.242188 0.324017 0  0.0856613 0.2625 0  0.132812 0.0612217 0  0.264062 0.0612217 0  0.198437 0.07598340000000001 0  0.0860223 0.1375 0  0.0794526 0.191089 0  0.285228 0.140397 0  0.298655 0.148737 0  0.31875 0.1 0  0.327335 0.15374 0  0.296875 0.1 0  0.312289 0.155283 0  0.313348 0.135607 0  0.321802 0.173916 0  0.298433 0.134116 0  0.112124 0.2625 0  0.127526 0.259083 0  0.121875 0.3 0  0.0682687 0.241503 0  0.1 0.2875 0  0.117762 0.28125 0  0.107813 0.3 0  0.103906 0.313849 0  0.0778409 0.28125 0  0.1375 0.41 0  0.0862762 0.29375 0  0.08886860000000001 0.24375 0  0.307812 0.338778 0  0.307812 0.292227 0  0.33216 0.279164 0  0.387888 0.266414 0  0.264063 0.31948 0  0.110937 0.07598340000000001 0  0.242188 0.07598340000000001 0  0.319914 0.11839 0  0.340625 0.1 0  0.334448 0.133793 0  0.329687 0.108539 0  0.346259 0.118491 0  0.360334 0.173636 0  0.327539 0.205033 0  0.132812 0.288712 0  0.362436 0.278836 0  0.368105 0.259418 0  0.4125 0.41 0  0.329687 0.324017 0  0.329687 0.292306 0  0.285938 0.318952 0  0.417187 0.338778 0  0.324481 0.14148 0  0.351562 0.106771 0  0.40625 0.1 0  0.341028 0.168342 0  0.319221 0.190479 0  0.335292 0.184501 0  0.305563 0.20794 0  0.220313 0.31948 0  0.132812 0.332772 0  0.0865876 0.311259 0  0.0598995 0.302453 0  0.0906541 0.343255 0  0.353543 0.255837 0  0.36574 0.237633 0  0.405007 0.254279 0  0.275795 0.352123 0  0.4125 0 0  0.35493 0.137394 0  0.366563 0.120618 0  0.35917 0.205246 0  0.198438 0.318952 0  0.0626109 0.263892 0  0.40625 0.3 0  0.354809 0.155936 0  0.386512 0.146872 0  0.373101 0.159939 0  0.384375 0.1 0  0.343394 0.19929 0  0.350682 0.185683 0  0.368101 0.189748 0  0.344016 0.221511 0  0.391108 0.213329 0  0.376279 0.204783 0  0.398843 0.182768 0  0.375804 0.222746 0  0.390665 0.196958 0  0.394004 0.23518 0  0.359883 0.222828 0  0.419908 0.204359 0  0.404243 0.204783 0  0.412615 0.224526 0  0.20625 0.41 0  0.165625 0.325257 0  0.0347982 0.244954 0  0.379558 0.247154 0  0.34165 0.147603 0  0.372264 0.136992 0  0.388988 0.121989 0  0.373437 0.108554 0  0.351562 0.31948 0  0.391367 0.16527 0  0.399572 0.223324 0  0.452011 0.227371 0  0.40877 0.239392 0  0.431491 0.237337 0  0.421224 0.250459 0  0.449619 0.262098 0  0.418865 0.276779 0  0.437063 0.252274 0  0.415673 0.263227 0  0.430988 0.266772 0  0.402767 0.273419 0  0.452967 0.244883 0  0.428125 0.3 0  0.408502 0.286186 0  0.384375 0.3 0  0.392267 0.285807 0  0.465927 0.219339 0  0.43489 0.283846 0  0.376424 0.286289 0  0.625 0.3 0  0.473533 0.205186 0  0.461713 0.255517 0  0.5375 0.3 0  0.465725 0.235405 0  0.44631 0.201425 0  0.471875 0.3 0  0.494307 0.227729 0  0.459448 0.206736 0  0.462294 0.180792 0  0.478933 0.227536 0  0.486793 0.21381 0  0.486322 0.251373 0  0.50065 0.215318 0  0.54005 0.175389 0  0.474633 0.189893 0  0.512916 0.208697 0  0.49531 0.199967 0  0.475889 0.175275 0  0.625 0.1 0  0.459311 0.153933 0  0.513645 0.242704 0  0.392892 0.248539 0  0.374815 0.271913 0  0.365974 0.14871 0  0.395312 0.109184 0  0.417061 0.123981 0  0.483196 0.277003 0  0.381967 0.179632 0  0.429898 0.219374 0  0.433473 0.206165 0  0.43149 0.181038 0  0.444208 0.215487 0  0.472985 0.247309 0  0.49375 0.3 0  0.475579 0.262714 0  0.49916 0.274293 0  0.501175 0.184809 0  0.514164 0.225681 0  0.543648 0.214977 0  0.5341630000000001 0.23481 0  0.527396 0.216171 0  0.5375 0.1 0  0.534548 0.202315 0  0.561545 0.192513 0  0.5494289999999999 0.201221 0  0.570923 0.218346 0  0.412582 0.149833 0  0.489327 0.264745 0  0.502439 0.254775 0  0.462391 0.271166 0  0.496775 0.241732 0  0.5294410000000001 0.268606 0  0.482812 0.291099 0  0.46879 0.285038 0  0.452663 0.284065 0  0.51789 0.257882 0  0.53408 0.252026 0  0.560142 0.243543 0  0.545708 0.243474 0  0.547532 0.229019 0  0.55282 0.265323 0  0.398971 0.153424 0  0.400349 0.135684 0  0.410135 0.168145 0  0.428823 0.161323 0  0.415266 0.183779 0  0.329687 0.0810483 0  0.395312 0.0612217 0  0.373437 0.318952 0  0.439062 0.324017 0  0.561816 0.229354 0  0.585029 0.239287 0  0.431827 0.139854 0  0.446796 0.168929 0  0.351562 0.07598340000000001 0  0.395313 0.318944 0  0.54337 0.150762 0  0.460937 0.31948 0  0.418412 0.137529 0  0.428125 0.1 0  0.442783 0.152332 0  0.450742 0.134294 0  0.373437 0.0805201 0  0.384383 0.342558 0  0.482812 0.318952 0  0.429239 0.127457 0  0.444274 0.117405 0  0.426548 0.113815 0  0.49375 0.1 0  0.488954 0.113984 0  0.457973 0.121842 0  0.471621 0.137346 0  0.515625 0.325257 0  0.48125 0.41 0  0.417187 0.07598340000000001 0  0.496363 0.126778 0  0.479043 0.155715 0  0.439062 0.0805201 0  0.481795 0.126919 0  0.471875 0.1 0  0.489227 0.142159 0  0.515625 0.1 0  0.520062 0.147117 0  0.501244 0.161791 0  0.505431 0.112984 0  0.505344 0.14029 0  0.526563 0.119081 0  0.5181750000000001 0.131908 0  0.539868 0.136937 0  0.460937 0.108383 0  0.474242 0.114415 0  0.460937 0.0810483 0  0.487841 0.167168 0  0.526563 0.0612217 0  0.526563 0.106406 0  0.537619 0.112743 0  0.58125 0.1 0  0.559375 0.1 0  0.482812 0.08105569999999999 0  0.471883 0.0587655 0  0.570312 0.129396 0  0.548437 0.07598340000000001 0  0.504687 0.08105569999999999 0  0.49375 0.0470127 0  0.570312 0.112663 0  0.592798 0.12103 0  0.553986 0.12103 0  0.570312 0.0805201 0  0.48125 0 0  0.114787 0.2 0  0.160769 0.284765 0  0.175816 0.288361 0  0.162602 0.116048 0  0.154687 0.07598340000000001 0  0.176562 0.0805201 0  0.0598995 0.147547 0  0.307812 0.109924 0  0.291279 0.117157 0  0.278491 0.112989 0  0.285937 0.07598340000000001 0  0.307812 0.0805201 0  0.296928 0.196743 0  0.318141 0.218507 0  0.330208 0.227509 0  0.301397 0.225668 0  0.302706 0.241401 0  0.292574 0.21424 0  0.282762 0.230935 0  0.284351 0.244775 0  0.269553 0.23261 0  0.278572 0.217242 0  0.226924 0.342606 0  0.446928 0.185396 0  0.515625 0.3 0  0.504687 0.288879 0  0.515256 0.276534 0  0.529479 0.285328 0  0.58125 0.3 0  0.541969 0.272936 0  0.559375 0.3 0  0.556796 0.282529 0  0.543473 0.287206 0  0.581429 0.267774 0  0.566728 0.271171 0  0.570869 0.255585 0  0.577404 0.283865 0  0.603125 0.3 0  0.597531 0.28035 0  0.570312 0.338778 0  0.592188 0.292492 0  0.603513 0.256094 0  0.614063 0.286265 0  0.610329 0.27064 0  0.632708 0.251285 0  0.657223 0.261594 0  0.618789 0.257807 0  0.614188 0.22987 0  0.630935 0.265614 
[...]
<PointData  Vectors="v"> 
	<DataArray  type="Float64"  Name="v"  NumberOfComponents="3" format="ascii">
0.0 0.0 0.0 0.0 0.0 0.0 0.0 0.0 0.0 0.0 0.0 0.0 0.7962289221823172 -0.19598259111628877 0.0 0.8404099384522369 0.20776604360502116 0.0 1.1696031884434825 -0.060863424527960994 0.0 1.1358341771546987 0.05450305577480771 0.0 0.0 0.0 0.0 0.0 0.0 0.0 0.0 0.0 0.0 0.0 0.0 0.0 0.0008697908602641398 0.0008193203200758284 0.0 0.0007883730345662884 0.0012297278733523441 0.0 0.0006194001246285011 0.0010848436195746228 0.0 0.0 0.0 0.0 0.0 0.0 0.0 0.0 0.0 0.0 0.0 0.0 0.0 0.0 0.0 0.0 0.0 0.0 0.0 0.0 0.0 0.0 0.0 0.0 0.0 0.0 0.0 0.0 0.0 0.0 0.0 0.0 0.0 0.0 0.0 0.0 0.0 0.0 0.0 0.0 0.0 0.0 0.0 0.0 0.0 0.0 0.0 0.0 0.0 0.0 0.0 0.0 0.0 0.0 0.0 0.0003603343434113848 -0.0006276109012991807 0.0 -0.00010774029860415775 0.0003217106532374603 0.0 0.0008314819222833435 -0.0007644374447379428 0.0 0.0 0.0 0.0 0.0 0.0 0.0 0.0 0.0 0.0 0.0 0.0 0.0 0.0 0.0 0.0 0.7613289886923736 -0.0012822615911508733 0.0 1.2757915093354997 0.08296839179371661 0.0 1.2660094209607573 -0.07734899584182717 0.0 0.0 0.0 0.0 1.3536207625532608 -0.13302988449158476 0.0 1.3581859949374362 0.15480911683998025 0.0 0.0 0.0 0.0 0.0 0.0 0.0 1.0 0.0 0.0 0.0 0.0 0.0 0.0 0.0 0.0 0.0 0.0 0.0 0.842592606944948 -0.23188573038715402 0.0 1.1513913202583759 -0.34435026232431626 0.0 0.8637849038359794 0.2293065929027698 0.0 1.166288703866789 0.354066751112817 0.0 0.4282357721323469 -0.003972444541705118 0.0 0.16556606585853548 0.06257732708897265 0.0 0.1694081857802908 -0.06075234256187073 0.0 -0.027607264100540582 -0.038360465792468185 0.0 -0.025888138079842266 0.03637229264699257 0.0 0.33437810960012004 -0.27984667741441616 0.0 0.8578866287783183 -0.6734660863207422 0.0 0.6399903226164122 -0.6881537274116147 0.0 1.2061219484089312 -0.6133062147575382 0.0 0.41595199218587947 -0.06902859880491975 0.0 0.3304481256095152 0.2687447431598076 0.0 0.6428373810732851 0.6693239549499359 0.0 1.1851767191310367 0.6153756739829149 0.0 0.4075999950737678 0.07157896290983273 0.0 1.3132327863900526 0.2608833256872053 0.0 0.3238263884581713 0.252138807550439 0.0 1.3026332855945895 -0.24053388574858336 0.0 0.3153757482024274 -0.24027825192971342 0.0 -0.033550299979499085 -0.016960118081900597 0.0 1.1248261567613655 -0.398752442445777 0.0 1.0931804232085665 -0.724340486043991 0.0 0.852069935125814 0.7707484686175269 0.0 1.1314519996981893 0.3995567072990436 0.0 0.7594890667517069 0.1859932073848011 0.0 0.10888466618172478 0.05150451107581765 0.0 0.7692623731065358 -0.18191907357999237 0.0 0.11128227589306787 -0.05005416875489448 0.0 -0.029578850332701693 0.01913616341158023 0.0 1.027535212694475 0.7188894691489447 0.0 0.4423842598829564 0.5291959150492386 0.0 0.4578520387910191 0.1774747075742918 0.0 0.27176148987931786 0.06910516919091701 0.0 0.4642519820184659 -0.17384486521375828 0.0 0.27758575740278985 -0.06477182725896215 0.0 -0.07516885888324874 0.0022781027576696004 0.0 0.9654855289588028 0.31740396660715176 0.0 1.2605609468120385 0.3131560596815932 0.0 1.2451859411346755 0.28880615380129 0.0 1.2348278373350954 -0.30769213324182737 0.0 1.2477734853400373 -0.2810600928305657 0.0 1.2202525324804179 0.33099608501128586 0.0 1.2260593804966156 -0.32268174103117103 0.0 0.4428864271321868 -0.5445720547833415 0.0 0.8020159002503934 -0.1396259161714868 0.0 0.6715071094112464 -0.41970055886949964 0.0 0.8773779920483928 0.5938454530646017 0.0 0.7993072033995441 0.1428084904790555 0.0 0.6764967753917502 0.4201512135034467 0.0 1.292662843042684 -0.007224737755173888 0.0 0.2935150292658771 0.14440643418964114 0.0 0.29477405611863744 -0.13471006386110077 0.0 -0.05442165458380826 -0.012919592832639036 0.0 1.265096778732681 0.4717956966592974 0.0 0.7687013599692868 0.12084204507365469 0.0 1.2610955839680227 -0.4733098004340373 0.0 0.7890969528339894 -0.1155507479743356 0.0 1.275649159552144 0.4180402036370262 0.0 1.2540200705823936 0.40110436918383485 0.0 1.2715353798719544 -0.41426596786777814 0.0 1.2446791686430545 -0.38114607224198527 0.0 0.5835263864557079 -0.16052543897510646 0.0 0.7964302648570529 -0.33180674822594874 0.0 1.0104481451765817 0.603799937203867 0.0 0.5917522206015553 0.15061112115817435 0.0 0.8125656868387716 0.33170735991053696 0.0 0.7460009427723824 0.08079636436555226 0.0 0.782493973951047 -0.07310907780374006 0.0 0.05228227161120409 -0.022012629913993637 0.0 1.3634302685327577 0.20742175725517714 0.0 0.9298139975480376 -0.3222312017803293 0.0 1.3445589856415319 -0.19008509312398528 0.0 0.40955514867320403 0.09083929640648518 0.0 0.42713013714038234 -0.07841209638515613 0.0 -0.05454862423817293 -0.008179447675765077 0.0 1.0573703065210687 0.35399025672334483 0.0 0.9431687945179926 0.39147392397979364 0.0 0.9222412152424754 0.11236158038284876 0.0 0.8241937409657645 -0.08687529198254343 0.0 1.306889587638981 0.0166023714469488 0.0 1.0274993406680935 -0.34520515053759276 0.0 1.074472781573876 -0.5703312827925864 0.0 0.9301230059559135 -0.3893957159905235 0.0 0.9974534966217934 -0.43865458823424097 0.0 0.9329193458936736 -0.5428280714114665 0.0 0.8655241876590302 -0.40649754971618063 0.0 1.2734866461665004 0.23286283328876364 0.0 1.2714176046314343 -0.2196068489762218 0.0 0.8526514945213971 -0.23562693470272322 0.0 0.8790434873451483 -0.3099508346298535 0.0 0.8528900830573047 -0.29904172297304304 0.0 0.8514023153014315 -0.2564009083048828 0.0 0.8542059688469648 -0.25277741647149754 0.0 0.8962656523403612 -0.3194661666575437 0.0 1.3292372946203324 0.3155526846730774 0.0 1.0845598935400105 -0.00249175839247408 0.0 1.3146137701620357 0.362327024002128 0.0 1.3213337629462694 -0.2960989851896162 0.0 0.0 0.0 0.0 0.0 0.0 0.0 1.299414915041885 -0.34950080171063513 0.0 0.7142411169287534 -0.2673123317358783 0.0 0.8203888409482697 -0.21075897899783821 0.0 0.8711704749054144 -0.11074827604424121 0.0 0.8624387662565819 -0.1637609664664635 0.0 0.9375 0.0 0.0 0.7500000000000001 0.0 0.0 0.7224773886804178 0.26531216051794454 0.0 0.8240412362488305 0.20015273164260833 0.0 0.7499999999999999 0.0 0.0 0.8697191999193856 0.1278316546601451 0.0 0.928713481895996 0.04284369164341726 0.0 0.8481128916385023 0.045076887028567915 0.0 -0.03489744811444328 -0.01157060640616585 0.0 0.09156414790765117 -0.017547746581654443 0.0 1.115037303663151 0.5547762306135143 0.0 1.0190287836533567 0.4731479673735112 0.0 0.8809770800611417 0.2454811459352864 0.0 1.2001258457804564 0.13902540275735514 0.0 1.32883516975448 0.059776866562176574 0.0 0.35231656195608674 0.03798062915353312 0.0 1.3561293462799906 0.10284719078517934 0.0 0.7140937823321667 0.053709002180776344 0.0 1.1712125196998966 0.10019158422042107 0.0 0.5148223753945403 0.015747166451438983 0.0 0.49647398053750286 0.029978514884614355 0.0 0.06997935687280668 0.013245585773163539 0.0 0.9567405576677945 0.03447150401987456 0.0 0.2574241354861093 0.022041131322889415 0.0 0.1634842465738541 0.008327322592995668 0.0 0.26791166563105206 0.014475931018722897 0.0 0.6667625686775069 -0.004917926317067125 0.0 0.4985530666601917 0.0068883064476950966 0.0 1.3156982239541375 0.0192741648374835 0.0 0.5424811767207635 0.06223258309486042 0.0 1.2301557306685917 -0.1420575322051564 0.0 0.20228887997121647 -0.037573773550497666 0.0 1.2057686670693826 0.17352121217712013 0.0 0.8828277553473386 0.17975138130583454 0.0 0.7011141892643242 -0.167956684665797 0.0 1.1155796228517534 -0.0942433812094599 0.0 1.0385376503004498 -0.22377664646514595 0.0 0.863747977567092 -0.1826452413006731 0.0 0.8754194164708087 -0.025585656793798518 0.0 0.43963820837145184 -0.04815872210641501 0.0 0.290673689439233 -0.03310556531693639 0.0 1.3289638454805446 -0.04195904891140295 0.0 0.20862754692865726 -0.013573172852984696 0.0 1.3554413062439168 -0.08641878485221223 0.0 0.19164261834420956 -0.01910443899996545 0.0 0.5356377370580834 -0.015774890863801697 0.0 -0.0014977134757544245 -0.01132344523525108 0.0 0.5723114046733873 -0.03153207603701588 0.0 0.8788990295748652 0.2971652228059519 0.0 0.8795700865972419 0.41078120018912795 0.0 0.8851006737871574 0.2703381355890552 0.0 0.9122213516307254 0.10985935149642902 0.0 0.8651841140343848 0.22330232225901855 0.0 0.9047358878388618 0.30372643139028 0.0 0.8572436409830257 0.23352684661574205 0.0 0.8020319558825512 0.18338545523792374 0.0 0.8670587597620765 0.16153912133567225 0.0 0.0 0.0 0.0 0.8415225002475079 0.17670193095282216 0.0 0.8706593743517758 0.17103558503687288 0.0 1.213073533906108 0.04974452750966304 0.0 1.2376162131161088 0.06491566955795845 0.0 0.8903136643371639 0.01315852979376275 0.0 0.5940576214245964 -0.026077990184719825 0.0 1.2798394370421722 0.14705576132401166 0.0 0.7176115641678014 -0.17372279195548526 0.0 1.1780074167431913 -0.16458171187062984 0.0 0.9986008187306338 -0.019872071436606832 0.0 1.3236206455867094 -0.007784779823512887 0.0 0.5855249207036239 -0.0002469387154479362 0.0 1.2204488329449978 -0.012659750835617042 0.0 0.9834770440998426 0.009130558727589883 0.0 -0.0044422070187367275 -0.00723789763131408 0.0 -0.096174819222091 0.0009201516464654358 0.0 0.9448681117993551 0.34123056736957313 0.0 0.8778068131517943 -0.01849853157425867 0.0 0.4276100075060272 -0.008319326461838649 0.0 0.0 0.0 0.0 1.3285824115219127 0.03747782658703932 0.0 1.2126012109033775 0.024900055677456946 0.0 1.3171935984791587 0.11455901812087532 0.0 1.252326714577215 -0.04430754716726393 0.0 0.4136454066201017 -0.013882446841727118 0.0 1.2283635299194815 0.010443225104277481 0.0 1.2913375276902752 0.05688937523799667 0.0 0.04113019188116531 -0.00998304515451585 0.0 -0.08251779185151999 -0.005307712437707639 0.0 -0.06763883485809016 -0.007671469222640795 0.0 -0.08122805761710321 0.002850169130108102 0.0 1.1857955895046726 0.21968944988384762 0.0 0.7774533042036158 0.198471482520778 0.0 0.7779176373161324 0.1542337868534267 0.0 0.7857390849729521 0.10691107530009746 0.0 0.6205769278270319 0.11098161579535928 0.0 0.3531150932678649 0.0012878128819545532 0.0 0.09334042321452302 0.0036374119989285693 0.0 0.3646867540616127 -0.020775257787598374 0.0 1.0719245032441211 0.07670981745288347 0.0 0.0 0.0 0.0 0.5199487934521188 0.011268263385295582 0.0 0.9319386488258966 0.0291145360944001 0.0 -0.10940592283300664 0.0003019936114468261 0.0 1.0970092760082775 0.2669996121051641 0.0 0.9003356174939542 0.11240187374815025 0.0 1.2801634782067306 -0.04953264392928493 0.0 0.18685411099020297 -0.00384907868556006 0.0 0.35896293895712966 0.017634109604231167 0.0 0.1431908547390942 -6.422493323694786e-05 0.0 1.3030773362950625 0.039240744116428895 0.0 -0.10612960488142255 -0.001835636843605022 0.0 -0.07749356161091454 -0.006769106001727399 0.0 -0.09774744714509818 -0.004838515673957628 0.0 -0.0435413658143411 0.006743018719682856 0.0 -0.09560160821818157 0.000730182757321865 0.0 -0.11588231340780086 -0.00026693142736957054 0.0 -0.06678446806258725 -0.0023384496915984207 0.0 -0.04143401673224203 0.0031480342218455333 0.0 -0.11968851511236372 -0.0023552640964421964 0.0 0.07514815835749776 -0.0022734546656984415 0.0 -0.038853857241375564 0.005390784655634217 0.0 -0.12312946329240641 -0.001456108285431405 0.0 -0.1217984214442879 -0.0010744793288132012 0.0 -0.02393110456611605 -0.002744126950523485 0.0 0.0 0.0 0.0 0.9464201100473207 0.2554422464518186 0.0 0.951352610995408 0.04010750077140975 0.0 0.22478354345231996 -0.0046325287822962 0.0 0.308734080640386 -0.004644707914558182 0.0 0.5444140222233822 0.020786316721922115 0.0 0.9124336433205497 0.04291682431146144 0.0 1.1921478448868479 0.034512580398091255 0.0 1.3536199146955255 0.014630734776330444 0.0 0.08817090789476648 0.0019787159980325843 0.0 -0.03603610452997168 -0.00022126997843760113 0.0 0.02227896342155373 -0.011947723594732524 0.0 0.13517860491673583 -0.009014908831839044 0.0 0.12523103506427918 -0.014092767628294015 0.0 0.3151662868527611 -0.023507416647720308 0.0 0.5747129015088968 -0.051087901996846895 0.0 0.8591692440591362 -0.05256216897580512 0.0 0.36632187288290163 -0.03199053931758027 0.0 0.5549184973762711 -0.036037911306229825 0.0 0.6501201906770755 -0.047943516121613926 0.0 0.7699379837188819 -0.04122520531167801 0.0 0.2586084400918367 -0.028489219834916885 0.0 1.2726011586138353 -0.06464521160019097 0.0 1.0583111270052366 -0.051928972882362874 0.0 1.2863966530225253 -0.029146247158502957 0.0 1.0488413395006249 -0.039829758551378464 0.0 -0.04319953968644294 -0.009102207268142305 0.0 1.0267574848319787 -0.06708562087284549 0.0 1.0600318129029775 -0.030187175333177253 0.0 1.226748381301733 -0.10294648916439382 0.0 -0.10897914848699304 -0.0024849884070972297 0.0 0.4597830739244994 -0.04584020018425324 0.0 1.2509921270272504 -0.10525992003153095 0.0 0.13101138543116359 -0.022007778791884744 0.0 -0.12212495231080336 -0.001162011684046986 0.0 1.2612379590529152 -0.08730387020982232 0.0 0.06249582167810486 -0.0212453373423399 0.0 -0.11169056634122586 -0.002833670536408267 0.0 -0.026173653421079166 0.009758830869197058 0.0 0.04508258865569607 -0.017919000681257846 0.0 -0.06808123443398185 -0.00824309904857577 0.0 0.4177544700199751 -0.04908755251178501 0.0 -0.04811808150708778 -0.010921352250420952 0.0 0.11283894319720843 0.030311706305312935 0.0 -0.08236167549013643 0.005439453412064752 0.0 -0.07319981710036463 -0.006433675578867546 0.0 -0.09964302999405904 0.000451293444578599 0.0 0.03963752108120115 0.01698683025200198 0.0 1.2156290133878578 0.10297311218633438 0.0 0.32785362560081516 0.03727706526587858 0.0 0.3035007694196746 -0.04477881559700658 0.0 0.25559904610472034 -0.010421644761963413 0.0 0.7080398741021391 -0.02076623290101122 0.0 0.3062573341065014 0.005408835159458622 0.0 1.1767637719233481 0.05294573321462889 0.0 0.8891027325248421 0.06093712322189926 0.0 0.9285447824033493 -0.0827534270442472 0.0 -0.047757494439575186 -0.00445542703284555 0.0 -0.05906250726672282 -0.004032361064196829 0.0 -0.11918417889926095 -0.00184733195671662 0.0 -0.04567637639057483 0.003773899681576359 0.0 -0.07981844002902837 -0.00455286149126674 0.0 0.325175531635149 -0.0387367958230738 0.0 1.2579029166061446 -0.0933786370107769 0.0 0.6254031817630917 -0.06170632099505749 0.0 0.892876769516211 -0.08578668996434242 0.0 -0.028758989029295818 0.012687142724445905 0.0 0.060012785389411745 -0.02301547532952423 0.0 -0.008244126756087274 -0.014855188416194673 0.0 0.20717442487460286 -0.038576283565465365 0.0 -0.017136826111977883 -0.0145901282722679 0.0 1.2533899085976474 0.1063663342189733 0.0 -0.06709826137726686 -0.0010350792023520717 0.0 -0.0147591669599991 0.011032490503324088 0.0 -0.051704900312722187 0.0002522795622922562 0.0 0.053535166754856214 -0.021286783920966175 0.0 0.3373308669681446 0.024429458188131723 0.0 0.6872296658688313 -0.07007906280650279 0.0 0.5063508102380883 -0.059809192879040275 0.0 0.7863285527855308 -0.06836600792985004 0.0 0.2636771910217311 -0.03850556264901225 0.0 0.8181418314346725 -0.08742557456958208 0.0 1.1659716236167945 -0.09094148060019348 0.0 1.0669868738542594 -0.08359813751335832 0.0 1.0402879126907456 -0.07514576586553115 0.0 0.5909336489590897 -0.0693751310178945 0.0 0.5022759399454666 -0.064337750481546 0.0 0.38933352888097084 -0.057040234394287244 0.0 0.3648126738017994 -0.053854374416644014 0.0 0.14304544519414955 -0.03286019024985741 0.0 0.785559446968162 -0.08792794979053159 0.0 0.25969086957162163 0.014502980743222647 0.0 0.6068715099292535 0.037708414922504686 0.0 0.06697634413142058 0.005740035378877799 0.0 0.17158227848493776 0.01757137522031613 0.0 -0.07039325894351556 -3.176664797685426e-05 0.0 1.3328084684158756 -0.02444920133807361 0.0 1.2180170684298615 0.041160344525480425 0.0 1.3550542013991445 -0.012055356999247665 0.0 1.3266025965054506 -0.06309770249670708 0.0 0.16778018822992272 -0.035589467023510735 0.0 0.35551841980866083 -0.054059170812563395 0.0 0.5588608404859499 0.046665789034197665 0.0 0.08724017527023074 0.01529397528764587 0.0 1.308307250572839 0.004053562114628642 0.0 1.3481148936389675 -0.03294015238578209 0.0 0.5181292378053493 0.06869829863076128 0.0 1.3269976933485386 -0.07655334558443692 0.0 0.5887287202575999 0.0431535367120919 0.0 1.2826094224894828 0.07198491552809283 0.0 0.3328554881261635 0.03342180451475988 0.0 0.7042818346255 0.06372807069289928 0.0 1.3348300325922982 0.02414588692380096 0.0 1.2311594519269762 -0.024185811498672143 0.0 1.3176921728125714 -0.08654331417496708 0.0 0.8250607454043896 0.06131257923147346 0.0 1.0479609790642135 0.07898564150969985 0.0 1.1071216543446012 0.0723556231900951 0.0 1.2669287135809795 0.09871754278417103 0.0 1.1287741432195135 0.09745735211486821 0.0 0.9750416393870196 0.08130699129451319 0.0 0.6690162036139244 0.06731481209237705 0.0 1.273422696555954 -0.08978426143507336 0.0 0.0 0.0 0.0 1.308065140557188 0.05787012974470135 0.0 0.9172153238203549 0.08968841855016639 0.0 0.3255641446220099 0.041838753012867554 0.0 1.3160101549137908 0.07171397214658146 0.0 0.8996226296721405 0.08542385818318764 0.0 1.2708523048764093 0.09143310373394047 0.0 0.5984309441225576 0.06623462077494166 0.0 1.2619409928322491 0.1038491559691739 0.0 0.5495578743355017 0.0682167744092729 0.0 0.25619640328152576 0.04012936051241933 0.0 1.1468081329971056 0.10178888702585465 0.0 0.661732262193433 0.07481075619171586 0.0 1.072602618739434 0.10362272609780099 0.0 0.8448963454833969 0.09068133575824414 0.0 0.7760348932063811 0.08890317912636107 0.0 1.1958032821387468 0.0888093024954827 0.0 1.1162887527419267 0.09197805108450922 0.0 1.3063067247735838 0.08202404811224982 0.0 0.1559917934813756 0.02865204237930464 0.0 1.1519939101436558 0.0792437317521779 0.0 1.216508552079572 0.10676628723957349 0.0 1.1574056505316312 0.10775513140091424 0.0 1.2333434325707342 0.10742366257741738 0.0 1.2435294121556337 0.1084973071097172 0.0 1.2912150916297627 0.08723857195263574 0.0 1.1832225561528928 0.06855260521662797 0.0 0.9451627227209687 0.10170454663353573 0.0 1.2290000235545775 0.09272308353479121 0.0 1.2789905415153255 0.09087673166653104 0.0 1.0450223730484391 0.06537131461925674 0.0 1.1622812248509338 0.10984676106909454 0.0 1.0791155923521651 0.10837115661777896 0.0 1.059794403070273 0.10642164206823977 0.0 1.2320398840970803 0.09702776027524197 0.0 0.0 0.0 0.0 0.6445066479497235 -0.005585747090189054 0.0 1.0778464518572657 0.43422906249918286 0.0 1.1669163887508862 0.4222301984964628 0.0 1.0822428772676833 -0.42679122161719346 0.0 0.8655995763552947 -0.22703079854532382 0.0 0.9788876737344147 -0.2555303443622501 0.0 0.8923679761882 -0.08498667936101506 0.0 1.2228169233441915 -0.052337910411216874 0.0 1.0814347483314894 -0.06404440038381325 0.0 1.1986626648730878 -0.10449702678925436 0.0 1.2652286309756342 -0.08459182301943483 0.0 1.3154029044341722 -0.05373752206333018 0.0 -0.08325366938514651 -0.0026221602107306795 0.0 -0.05032089293425715 0.007490677026900558 0.0 0.0008727283732579089 0.009809573542579587 0.0 0.0007588974366343744 0.011900761001213251 0.0 0.14706183201833545 0.026694966991527753 0.0 -0.05714643976421609 0.008116204550139712 0.0 0.061378562815594256 0.021864188948730864 0.0 0.21723041992771758 0.037110802434004525 0.0 0.08506598924834333 0.03823122378962872 0.0 -0.03611437181313136 0.01502652215881041 0.0 1.0348085620049603 0.16074668450932558 0.0 -0.07004218101752531 0.004324144144787374 0.0 1.254692319831625 -0.10035574483854805 0.0 1.1419082311112072 -0.09802239774317778 0.0 0.950665876920401 -0.09226990630151896 0.0 1.1040563032475084 -0.10187310050271875 0.0 1.2398120769139034 -0.10616210829843914 0.0 0.913207574529484 -0.09509742882919271 0.0 1.247294787963273 -0.10638869762229781 0.0 1.0780233467317177 -0.10453934877723683 0.0 1.1332097561091325 -0.10456299536922216 0.0 0.8640676694180032 -0.09430533174319422 0.0 0.9075960407616172 -0.09680447774754995 0.0 0.6265394554646617 -0.07725639944354597 0.0 1.1046445471628228 -0.10700346798723283 0.0 1.2336762177840348 -0.10591579535076373 0.0 1.0693494711382086 -0.10472123076950957 0.0 1.1682751011639825 -0.0856905501339459 0.0 1.193501271379696 -0.10810476917351519 0.0 0.6826737231023281 -0.08101754984633634 0.0 1.141524316313845 -0.1052119447673229 0.0 0.9397983394736509 -0.097958