<?xml version="1.0"?>
<VTKFile type="UnstructuredGrid"  version="0.1"  >
<UnstructuredGrid>
<Piece  NumberOfPoints="1289" NumberOfCells="2413">
<Points>
<DataArray  type="Float64"  NumberOfComponents="3"  format="ascii">0 0 0  0 0.41 0  2.2 0.41 0  2.2 0 0  0.1 0.1 0  0.1 0.3 0  0.8 0.3 0  0.8 0.1 0  0.25 0.2 0  0.248976 0.210065 0  0.245948 0.219718 0  0.241038 0.228563 0  0.234448 0.23624 0  0.226448 0.242432 0  0.217365 0.246888 0  0.207571 0.249423 0  0.197468 0.249936 0  0.187467 0.248404 0  0.17798 0.24489 0  0.169395 0.239539 0  0.162062 0.232569 0  0.156283 0.224265 0  0.152293 0.214968 0  0.150257 0.205058 0  0.150257 0.194942 0  0.152293 0.185032 0  0.156283 0.175735 0  0.162062 0.167431 0  0.169395 0.160461 0  0.17798 0.15511 0  0.187467 0.151596 0  0.197468 0.150064 0  0.207571 0.150577 0  0.217365 0.153112 0  0.226448 0.157568 0  0.234448 0.16376 0  0.241038 0.171437 0  0.245948 0.180282 0  0.248976 0.189935 0  1.1 0 0  1.1 0.41 0  0.1 0.2 0  0.45 0.1 0  0.45 0.3 0  0.55 0 0  0.275 0.1 0  0.275 0.3 0  0.275 0 0  0.55 0.41 0  0 0.205 0  0.825 0 0  0.825 0.41 0  0.275 0.41 0  0.1 0.15 0  0.1875 0.1 0  0.1 0.25 0  0.1875 0.3 0  0.132322 0.2 0  0.241426 0.253518 0  0.241426 0.146482 0  0.264574 0.17974 0  0.264574 0.22026 0  0.138434 0.187348 0  0.153372 0.150948 0  0.148413 0.164094 0  0.176495 0.136535 0  0.22768 0.143571 0  0.138434 0.212652 0  0.148413 0.235906 0  0.176495 0.263465 0  0.22768 0.256429 0  0.23125 0.3 0  0.24769 0.24094 0  0.23125 0.1 0  0.24769 0.15906 0  0.26253 0.193641 0  0.190482 0.137872 0  0.166753 0.146661 0  0.157737 0.244461 0  0.190482 0.262128 0  0.203107 0.261264 0  0.253635 0.22977 0  0.203107 0.138736 0  0.253635 0.17023 0  0.261028 0.206206 0  0.167707 0.251809 0  0.143629 0.224191 0  0.215302 0.2591 0  0.270465 0.245894 0  0.215302 0.1409 0  0.270465 0.154106 0  0.284052 0.202587 0  0.14375 0.3 0  0.209375 0.3 0  0.225966 0.278501 0  0.209375 0.1 0  0.225966 0.121499 0  0.211613 0.273759 0  0.211613 0.126241 0  0.143629 0.175809 0  0.1 0.175 0  0.133484 0.164832 0  0.144491 0.249539 0  0.1 0.225 0  0.133484 0.235168 0  0.3625 0.3 0  0.25691 0.253381 0  0.25691 0.146619 0  0.277205 0.188698 0  0.184724 0.275712 0  0.237372 0.268285 0  0.184724 0.124288 0  0.237372 0.131715 0  0.197578 0.273149 0  0.193656 0.286994 0  0.197578 0.126851 0  0.193656 0.113006 0  0.122953 0.187671 0  0.118362 0.153758 0  0.155372 0.258107 0  0.122953 0.212329 0  0.118362 0.246242 0  0.276394 0.27264 0  0.276394 0.12736 0  0.280965 0.170013 0  0.253125 0.3 0  0.14375 0.1 0  0.253125 0.1 0  0.269489 0.26014 0  0.269489 0.13986 0  0.303639 0.184297 0  0.165625 0.3 0  0.134742 0.273113 0  0.257831 0.274737 0  0.255279 0.128499 0  0.3625 0.1 0  0.165625 0.1 0  0.162031 0.132368 0  0.134955 0.126405 0  0.149334 0.125568 0  0.142936 0.139597 0  0.12695 0.140259 0  0.242514 0.285501 0  0.242514 0.114499 0  0.1 0.125 0  0.117483 0.12555 0  0.11154 0.139776 0  0.121875 0.1 0  0.109143 0.1125 0  0.126805 0.114 0  0.220313 0.29129 0  0.351562 0.287369 0  0.207222 0.2866 0  0.220312 0.10871 0  0.1375 0 0  0.20625 0 0  0.207222 0.1134 0  0.11722 0.17118 0  0.1 0.1625 0  0.0778409 0.16875 0  0.0862762 0.15625 0  0 0.15375 0  0 0.1025 0  0.11722 0.22882 0  0.1 0.2375 0  0 0.3075 0  0.0862762 0.23125 0  0.0598995 0.222547 0  0.0860223 0.2125 0  0.289584 0.181469 0  0.300267 0.16446 0  0.163832 0.269071 0  0.149597 0.273325 0  0.1 0.275 0  0.268498 0.285953 0  0.31875 0.3 0  0.294154 0.254672 0  0.296875 0.3 0  0.293558 0.271845 0  0.285095 0.286799 0  0.324298 0.264316 0  0.307866 0.263745 0  0.317093 0.234901 0  0.315485 0.281219 0  0.316547 0.250625 0  0.344693 0.243731 0  0.331592 0.251147 0  0.35129 0.270663 0  0.338689 0.263683 0  0.340625 0.3 0  0.249849 0.264383 0  0.265097 0.11422 0  0.284688 0.156136 0  0.242188 0.324017 0  0.0856613 0.2625 0  0.132812 0.0612217 0  0.264062 0.0612217 0  0.198437 0.07598340000000001 0  0.0860223 0.1375 0  0.0794526 0.191089 0  0.285228 0.140397 0  0.298655 0.148737 0  0.31875 0.1 0  0.327335 0.15374 0  0.296875 0.1 0  0.312289 0.155283 0  0.313348 0.135607 0  0.321802 0.173916 0  0.298433 0.134116 0  0.112124 0.2625 0  0.127526 0.259083 0  0.121875 0.3 0  0.0682687 0.241503 0  0.1 0.2875 0  0.117762 0.28125 0  0.107813 0.3 0  0.103906 0.313849 0  0.0778409 0.28125 0  0.1375 0.41 0  0.0862762 0.29375 0  0.08886860000000001 0.24375 0  0.307812 0.338778 0  0.307812 0.292227 0  0.33216 0.279164 0  0.387888 0.266414 0  0.264063 0.31948 0  0.110937 0.07598340000000001 0  0.242188 0.07598340000000001 0  0.319914 0.11839 0  0.340625 0.1 0  0.334448 0.133793 0  0.329687 0.108539 0  0.346259 0.118491 0  0.360334 0.173636 0  0.327539 0.205033 0  0.132812 0.288712 0  0.362436 0.278836 0  0.368105 0.259418 0  0.4125 0.41 0  0.329687 0.324017 0  0.329687 0.292306 0  0.285938 0.318952 0  0.417187 0.338778 0  0.324481 0.14148 0  0.351562 0.106771 0  0.40625 0.1 0  0.341028 0.168342 0  0.319221 0.190479 0  0.335292 0.184501 0  0.305563 0.20794 0  0.220313 0.31948 0  0.132812 0.332772 0  0.0865876 0.311259 0  0.0598995 0.302453 0  0.0906541 0.343255 0  0.353543 0.255837 0  0.36574 0.237633 0  0.405007 0.254279 0  0.275795 0.352123 0  0.4125 0 0  0.35493 0.137394 0  0.366563 0.120618 0  0.35917 0.205246 0  0.198438 0.318952 0  0.0626109 0.263892 0  0.40625 0.3 0  0.354809 0.155936 0  0.386512 0.146872 0  0.373101 0.159939 0  0.384375 0.1 0  0.343394 0.19929 0  0.350682 0.185683 0  0.368101 0.189748 0  0.344016 0.221511 0  0.391108 0.213329 0  0.376279 0.204783 0  0.398843 0.182768 0  0.375804 0.222746 0  0.390665 0.196958 0  0.394004 0.23518 0  0.359883 0.222828 0  0.419908 0.204359 0  0.404243 0.204783 0  0.412615 0.224526 0  0.20625 0.41 0  0.165625 0.325257 0  0.0347982 0.244954 0  0.379558 0.247154 0  0.34165 0.147603 0  0.372264 0.136992 0  0.388988 0.121989 0  0.373437 0.108554 0  0.351562 0.31948 0  0.391367 0.16527 0  0.399572 0.223324 0  0.452011 0.227371 0  0.40877 0.239392 0  0.431491 0.237337 0  0.421224 0.250459 0  0.449619 0.262098 0  0.418865 0.276779 0  0.437063 0.252274 0  0.415673 0.263227 0  0.430988 0.266772 0  0.402767 0.273419 0  0.452967 0.244883 0  0.428125 0.3 0  0.408502 0.286186 0  0.384375 0.3 0  0.392267 0.285807 0  0.465927 0.219339 0  0.43489 0.283846 0  0.376424 0.286289 0  0.625 0.3 0  0.473533 0.205186 0  0.461713 0.255517 0  0.5375 0.3 0  0.465725 0.235405 0  0.44631 0.201425 0  0.471875 0.3 0  0.494307 0.227729 0  0.459448 0.206736 0  0.462294 0.180792 0  0.478933 0.227536 0  0.486793 0.21381 0  0.486322 0.251373 0  0.50065 0.215318 0  0.54005 0.175389 0  0.474633 0.189893 0  0.512916 0.208697 0  0.49531 0.199967 0  0.475889 0.175275 0  0.625 0.1 0  0.459311 0.153933 0  0.513645 0.242704 0  0.392892 0.248539 0  0.374815 0.271913 0  0.365974 0.14871 0  0.395312 0.109184 0  0.417061 0.123981 0  0.483196 0.277003 0  0.381967 0.179632 0  0.429898 0.219374 0  0.433473 0.206165 0  0.43149 0.181038 0  0.444208 0.215487 0  0.472985 0.247309 0  0.49375 0.3 0  0.475579 0.262714 0  0.49916 0.274293 0  0.501175 0.184809 0  0.514164 0.225681 0  0.543648 0.214977 0  0.5341630000000001 0.23481 0  0.527396 0.216171 0  0.5375 0.1 0  0.534548 0.202315 0  0.561545 0.192513 0  0.5494289999999999 0.201221 0  0.570923 0.218346 0  0.412582 0.149833 0  0.489327 0.264745 0  0.502439 0.254775 0  0.462391 0.271166 0  0.496775 0.241732 0  0.5294410000000001 0.268606 0  0.482812 0.291099 0  0.46879 0.285038 0  0.452663 0.284065 0  0.51789 0.257882 0  0.53408 0.252026 0  0.560142 0.243543 0  0.545708 0.243474 0  0.547532 0.229019 0  0.55282 0.265323 0  0.398971 0.153424 0  0.400349 0.135684 0  0.410135 0.168145 0  0.428823 0.161323 0  0.415266 0.183779 0  0.329687 0.0810483 0  0.395312 0.0612217 0  0.373437 0.318952 0  0.439062 0.324017 0  0.561816 0.229354 0  0.585029 0.239287 0  0.431827 0.139854 0  0.446796 0.168929 0  0.351562 0.07598340000000001 0  0.395313 0.318944 0  0.54337 0.150762 0  0.460937 0.31948 0  0.418412 0.137529 0  0.428125 0.1 0  0.442783 0.152332 0  0.450742 0.134294 0  0.373437 0.0805201 0  0.384383 0.342558 0  0.482812 0.318952 0  0.429239 0.127457 0  0.444274 0.117405 0  0.426548 0.113815 0  0.49375 0.1 0  0.488954 0.113984 0  0.457973 0.121842 0  0.471621 0.137346 0  0.515625 0.325257 0  0.48125 0.41 0  0.417187 0.07598340000000001 0  0.496363 0.126778 0  0.479043 0.155715 0  0.439062 0.0805201 0  0.481795 0.126919 0  0.471875 0.1 0  0.489227 0.142159 0  0.515625 0.1 0  0.520062 0.147117 0  0.501244 0.161791 0  0.505431 0.112984 0  0.505344 0.14029 0  0.526563 0.119081 0  0.5181750000000001 0.131908 0  0.539868 0.136937 0  0.460937 0.108383 0  0.474242 0.114415 0  0.460937 0.0810483 0  0.487841 0.167168 0  0.526563 0.0612217 0  0.526563 0.106406 0  0.537619 0.112743 0  0.58125 0.1 0  0.559375 0.1 0  0.482812 0.08105569999999999 0  0.471883 0.0587655 0  0.570312 0.129396 0  0.548437 0.07598340000000001 0  0.504687 0.08105569999999999 0  0.49375 0.0470127 0  0.570312 0.112663 0  0.592798 0.12103 0  0.553986 0.12103 0  0.570312 0.0805201 0  0.48125 0 0  0.114787 0.2 0  0.160769 0.284765 0  0.175816 0.288361 0  0.162602 0.116048 0  0.154687 0.07598340000000001 0  0.176562 0.0805201 0  0.0598995 0.147547 0  0.307812 0.109924 0  0.291279 0.117157 0  0.278491 0.112989 0  0.285937 0.07598340000000001 0  0.307812 0.0805201 0  0.296928 0.196743 0  0.318141 0.218507 0  0.330208 0.227509 0  0.301397 0.225668 0  0.302706 0.241401 0  0.292574 0.21424 0  0.282762 0.230935 0  0.284351 0.244775 0  0.269553 0.23261 0  0.278572 0.217242 0  0.226924 0.342606 0  0.446928 0.185396 0  0.515625 0.3 0  0.504687 0.288879 0  0.515256 0.276534 0  0.529479 0.285328 0  0.58125 0.3 0  0.541969 0.272936 0  0.559375 0.3 0  0.556796 0.282529 0  0.543473 0.287206 0  0.581429 0.267774 0  0.566728 0.271171 0  0.570869 0.255585 0  0.577404 0.283865 0  0.603125 0.3 0  0.597531 0.28035 0  0.570312 0.338778 0  0.592188 0.292492 0  0.603513 0.256094 0  0.614063 0.286265 0  0.610329 0.27064 0  0.632708 0.251285 0  0.657223 0.261594 0  0.618789 0.257807 0  0.614188 0.22987 0  0.630935 0.265614 
[...]
<PointData  Vectors="v"> 
	<DataArray  type="Float64"  Name="v"  NumberOfComponents="3" format="ascii">
0.0 0.0 0.0 0.0 0.0 0.0 0.0 0.0 0.0 0.0 0.0 0.0 0.7962425242413361 -0.19600676270788708 0.0 0.8403953313314376 0.20774352310520103 0.0 1.1675327016406167 -0.05995853407715303 0.0 1.1377981042079406 0.0554854221285256 0.0 0.0 0.0 0.0 0.0 0.0 0.0 0.0 0.0 0.0 0.0 0.0 0.0 0.0008858638371250498 0.0008472296139041854 0.0 0.0014664023465019418 0.002404255750194013 0.0 0.0008161151772843652 0.0014253804559872343 0.0 0.0 0.0 0.0 0.0 0.0 0.0 0.0 0.0 0.0 0.0 0.0 0.0 0.0 0.0 0.0 0.0 0.0 0.0 0.0 0.0 0.0 0.0 0.0 0.0 0.0 0.0 0.0 0.0 0.0 0.0 0.0 0.0 0.0 0.0 0.0 0.0 0.0 0.0 0.0 0.0 0.0 0.0 0.0 0.0 0.0 0.0 0.0 0.0 0.0 0.0 0.0 0.0 0.0 0.0 0.00010495546633853757 -0.0001855121396137902 0.0 -0.0009883813717345615 0.0018472949854377964 0.0 0.0008113742898776862 -0.0007288125336458986 0.0 0.0 0.0 0.0 0.0 0.0 0.0 0.0 0.0 0.0 0.0 0.0 0.0 0.0 0.0 0.0 0.761328207307276 -0.0013288272689161442 0.0 1.2756173335292464 0.08301792437305268 0.0 1.2662000403029814 -0.07732934135376537 0.0 0.0 0.0 0.0 1.3536640685213772 -0.13296087027911896 0.0 1.358143878888107 0.1548955964835983 0.0 0.0 0.0 0.0 0.0 0.0 0.0 1.0 0.0 0.0 0.0 0.0 0.0 0.0 0.0 0.0 0.0 0.0 0.0 0.8426048970034901 -0.2319251088915696 0.0 1.1514388377493179 -0.3443568378405307 0.0 0.8637714458986039 0.22926851767688242 0.0 1.16624203537544 0.3540706649936038 0.0 0.42823453735324746 -0.004028021960555013 0.0 0.16590068538855385 0.06267923930436187 0.0 0.16895056861741323 -0.060608226735045095 0.0 -0.027555134168884533 -0.03843342021795699 0.0 -0.025932492936568654 0.036282067781942644 0.0 0.3343877523619202 -0.2799069968446273 0.0 0.8579181984863837 -0.6735086487308087 0.0 0.6400177869330682 -0.6882052778425181 0.0 1.2061639658889103 -0.6133350134736447 0.0 0.41644941790279966 -0.06864198384426344 0.0 0.33043674747377333 0.26868352580264304 0.0 0.6428074563330465 0.6692703123369019 0.0 1.1851271031659263 0.6153495040159808 0.0 0.4072694671213433 0.07190096599585742 0.0 1.3131853478758502 0.2609535970603834 0.0 0.3242759383876596 0.2522205687486619 0.0 1.3026871853265651 -0.24047142095262525 0.0 0.31531228119732974 -0.2405325138935659 0.0 -0.033530533267584914 -0.01704681478998234 0.0 1.1248586284875461 -0.3987760324188122 0.0 1.0932231724520005 -0.7243766795037762 0.0 0.8520286165959988 0.7707012163233434 0.0 1.131392891654222 0.3995338686843179 0.0 0.759447992401941 0.18594887094979015 0.0 0.1089678384995725 0.05150161246951507 0.0 0.7692679971999132 -0.1819741431120257 0.0 0.11130181994992744 -0.050059279790972834 0.0 -0.029594549855273426 0.01904902942659627 0.0 1.0274881330215937 0.7188519070810159 0.0 0.44235910174576676 0.5291357783563717 0.0 0.4576227136621283 0.17732310096002948 0.0 0.2720853854818823 0.06912292607673037 0.0 0.46453522632494443 -0.1741015922295738 0.0 0.27744998178385166 -0.0647708914624696 0.0 -0.07517218252422593 0.0021701452816106446 0.0 0.9654560535062289 0.3173868459755726 0.0 1.2605036692864107 0.31318339529113265 0.0 1.2450217098060972 0.28882884608182086 0.0 1.2348877969364216 -0.30768265300350106 0.0 1.2479344763424571 -0.2810514462428624 0.0 1.2201271828597628 0.3309747602869807 0.0 1.2261696857947162 -0.3227236135876321 0.0 0.4429099375114214 -0.5446309805714156 0.0 0.8020231649414058 -0.13967192211923898 0.0 0.6715268180586155 -0.4197549263540882 0.0 0.8773436453931103 0.5938014909074907 0.0 0.7992982168042937 0.14276320325739256 0.0 0.6764738441391168 0.4200963371749595 0.0 1.2926261796598375 -0.0071135836714397455 0.0 0.2936596964719726 0.1444896447582699 0.0 0.29473490189153256 -0.13476085809160854 0.0 -0.05437356056312666 -0.013034394856979145 0.0 1.2650415654904361 0.47178325436138796 0.0 0.7686038230348988 0.12095428770633791 0.0 1.2611417196703611 -0.4733329841723235 0.0 0.7891915414168719 -0.11542326021302363 0.0 1.275571594555633 0.4180224444311829 0.0 1.253959492214921 0.4011051623897691 0.0 1.2716003938470142 -0.4142997853895093 0.0 1.2447372259605372 -0.3811585217808507 0.0 0.5835343110015406 -0.16058147682182794 0.0 0.7964469363317024 -0.3318522360297548 0.0 1.0104061694046502 0.603764989083244 0.0 0.5917427757766374 0.15055495589996826 0.0 0.8125468660603757 0.3316625850978961 0.0 0.7458367735340378 0.08085085696290413 0.0 0.7826239874726684 -0.07310144964240241 0.0 0.05231526264328308 -0.022132019333283588 0.0 1.3633896823063094 0.20749976197602926 0.0 0.9298421763520857 -0.32225436739526814 0.0 1.3446098433774962 -0.19002451705377763 0.0 0.4096018016782838 0.0909207201902458 0.0 0.42715027446810544 -0.07841541686856489 0.0 -0.054516630241313625 -0.00825670655389403 0.0 1.057332961703681 0.35398149424380704 0.0 0.943140140021182 0.3914432131257902 0.0 0.922083109780296 0.11242834687624151 0.0 0.8243212757041579 -0.08684034629470039 0.0 1.3069509605514205 0.016717487781785445 0.0 1.027536446306469 -0.34522108463601864 0.0 1.0745096285948055 -0.570362120157287 0.0 0.9301496583481463 -0.38942903352410435 0.0 0.9974858308229174 -0.43868446869071787 0.0 0.9329498177485139 -0.5428679974390096 0.0 0.8655463746950254 -0.40653837245411373 0.0 1.273400790582925 0.23292592851071822 0.0 1.2714713754907145 -0.21955313370666635 0.0 0.8526655997770732 -0.23565895250535485 0.0 0.8790636191944249 -0.3099844139333595 0.0 0.8529071821502002 -0.29907961786361487 0.0 0.8514237898456692 -0.25642544414843 0.0 0.8542235970778684 -0.2528061062736188 0.0 0.8962888126972721 -0.3194956257691195 0.0 1.3291567010571108 0.3155932488630448 0.0 1.0843788590944283 -0.0023658804997328236 0.0 1.314536872878116 0.3623427795751901 0.0 1.3214205398340966 -0.2960763598148793 0.0 0.0 0.0 0.0 0.0 0.0 0.0 1.2994897848623765 -0.3495018475723489 0.0 0.7142524706848178 -0.26736262311374676 0.0 0.8203992450055209 -0.21080126321533482 0.0 0.8711749718946117 -0.11078418395237062 0.0 0.8624464165619644 -0.16379737760849306 0.0 0.9375 0.0 0.0 0.7500000000000001 0.0 0.0 0.7224644675780718 0.26526212597046606 0.0 0.8240295797109569 0.20011091099692635 0.0 0.7499999999999999 0.0 0.0 0.8697119271662536 0.12779298280489274 0.0 0.9287105478490861 0.042816615366210294 0.0 0.8481103120340896 0.04503626326194627 0.0 -0.03484488581619138 -0.011689421999618735 0.0 0.09161385268972472 -0.017644659547577123 0.0 1.1149929521696282 0.5547498592088952 0.0 1.0189921708688354 0.4731196761850502 0.0 0.8809622773674431 0.24545041619330507 0.0 1.1999830837763215 0.13909277691841604 0.0 1.328767076960185 0.05987607171661451 0.0 0.35240964746835907 0.03799045618172389 0.0 1.3560672391509623 0.10293716442591797 0.0 0.7139457616147623 0.05377636266773874 0.0 1.1710500660053622 0.1002660789306166 0.0 0.5146986888605605 0.01583337575836823 0.0 0.49639090548735715 0.030033997193242845 0.0 0.06996794700515012 0.013238379318457425 0.0 0.9565187742948115 0.03455991748647936 0.0 0.25738569456628635 0.022072347679657038 0.0 0.1634216248944382 0.008429768570225841 0.0 0.2678480724011896 0.014546454672278157 0.0 0.6665683845812399 -0.00477554458385078 0.0 0.49840185964371175 0.007004782890089238 0.0 1.3156339806557058 0.01937905091934557 0.0 0.5424036831555963 0.06226753216301295 0.0 1.2303034827660642 -0.14200577956373453 0.0 0.20225478627340351 -0.03764164879125966 0.0 1.2057531762632063 0.17357875517347923 0.0 0.882817795573142 0.17972052728682136 0.0 0.7011368532281125 -0.16796924025528895 0.0 1.115587261817204 -0.09419873520901541 0.0 1.0385767243581565 -0.22376898887402485 0.0 0.8637575549701992 -0.18267676786112733 0.0 0.8754199899654077 -0.02562355071820339 0.0 0.439688725186464 -0.04815048603241074 0.0 0.29070533485461186 -0.033143958728189434 0.0 1.3290460431975555 -0.04187097916391214 0.0 0.2087453160169201 -0.013554601082021969 0.0 1.3555164703925286 -0.08634935008366229 0.0 0.19172418683030637 -0.01914061865582097 0.0 0.5358050725157557 -0.015737127589400633 0.0 -0.0014508083790574645 -0.011331882614118818 0.0 0.5724572091024333 -0.031505693859585814 0.0 0.8788798806506734 0.29712968689312647 0.0 0.8795453931155572 0.41074136864186717 0.0 0.8850796885411182 0.27031610104518233 0.0 0.912216138110298 0.10982975289178064 0.0 0.865169590174509 0.22327699942673743 0.0 0.9047145166134477 0.30369700626355334 0.0 0.8572266878754591 0.23350386422648486 0.0 0.8020171832090315 0.18336768759868613 0.0 0.8670492946815849 0.161515044042427 0.0 0.0 0.0 0.0 0.8415117601893631 0.1766794027743768 0.0 0.8706500353950286 0.17099946924748363 0.0 1.213123642624854 0.049813909902847876 0.0 1.2374690473131402 0.06500346793213686 0.0 0.8901020390248766 0.013264328928287212 0.0 0.5939178169691007 -0.025893186545902017 0.0 1.2798394371989132 0.14713676563933353 0.0 0.7176276176816504 -0.1737414151256926 0.0 1.178037394684244 -0.16454332794827387 0.0 0.9988391906809982 -0.019800576276394855 0.0 1.3237055438018577 -0.007680764337885931 0.0 0.5857548062374326 -0.00016173500285174863 0.0 1.2206245018160211 -0.012565559311504503 0.0 0.9837309466911023 0.009244521969708448 0.0 -0.004393741968019955 -0.007099550463935875 0.0 -0.09618347372391428 0.0009405485775110517 0.0 0.9448412689739826 0.3412057389503038 0.0 0.8776111324288239 -0.018354062963723612 0.0 0.42747491178788083 -0.008151089437926832 0.0 0.0 0.0 0.0 1.3286592703469031 0.03756614300324122 0.0 1.2124512300618753 0.025009391874989573 0.0 1.317211960251971 0.11464521714636519 0.0 1.2525070402844198 -0.04429241387533714 0.0 0.4138085180956783 -0.013845290027320099 0.0 1.2285138897255556 0.010562596181479885 0.0 1.2913015849729024 0.056997454784461846 0.0 0.04119570895492004 -0.009913944100333185 0.0 -0.08251060398634745 -0.005325465173088771 0.0 -0.0676234716561553 -0.007629764436947959 0.0 -0.08123342326835835 0.002789403883798072 0.0 1.1857621908560776 0.21973251899115767 0.0 0.7774343734861702 0.19846054293311527 0.0 0.7779077585350845 0.15421578872347103 0.0 0.7857338372343664 0.10689494614774354 0.0 0.6205672598865272 0.11096988469202462 0.0 0.3530005868090121 0.0014259275289979576 0.0 0.09327914448566642 0.0038014175623370936 0.0 0.36460025391303835 -0.020555974170635295 0.0 1.0719499252124722 0.07675752284039213 0.0 0.0 0.0 0.0 0.5201844601757494 0.01139912135699011 0.0 0.9321860001900999 0.02926228982750241 0.0 -0.10942266931464016 0.0004334659112460508 0.0 1.096973988863937 0.2670169524322139 0.0 0.9003303849434106 0.11237853844027927 0.0 1.2802298019608649 -0.04945233025375386 0.0 0.18698409490775153 -0.003727535097782815 0.0 0.3591396736072008 0.01784967828600945 0.0 0.14330035277052042 0.00011687041651645006 0.0 1.303096232748541 0.039360106927372115 0.0 -0.10613828345504872 -0.0017611412458130352 0.0 -0.07747982803226662 -0.006668953306864506 0.0 -0.09773913579292258 -0.004678070240826074 0.0 -0.04356835555334398 0.006828250283583215 0.0 -0.0956270625436632 0.0009533051094492246 0.0 -0.11589966244670823 -8.271730699626555e-05 0.0 -0.06675350724769112 -0.00208182684004372 0.0 -0.04147635710715494 0.0033320117540702452 0.0 -0.11968944748759891 -0.0021268064458110185 0.0 0.07509005811251984 -0.0020520030812261683 0.0 -0.038889876832646934 0.005527881878755864 0.0 -0.12312716165355451 -0.0011466751909289207 0.0 -0.12180622460890898 -0.0008073967267169464 0.0 -0.02395908713581569 -0.00247734858629461 0.0 0.0 0.0 0.0 0.9463908495000327 0.25543987486320907 0.0 0.951351838043273 0.04009259041457631 0.0 0.2246935543050056 -0.004441211344900284 0.0 0.30889990010029833 -0.004566382477302803 0.0 0.5446525939068466 0.020962073139449765 0.0 0.9126501199296762 0.04309136834295564 0.0 1.1922883094337806 0.03464979833164435 0.0 1.3537113896726456 0.01472138871901816 0.0 0.08825638483927332 0.00221480432747851 0.0 -0.036071340049805015 1.8927020068466258e-05 0.0 0.022339205539982167 -0.01160415165732606 0.0 0.1351246107130943 -0.008773312637172128 0.0 0.12522282923072586 -0.013816878109671584 0.0 0.31511811736210865 -0.023271714038170545 0.0 0.5747721537768661 -0.050893735736373374 0.0 0.8591268478921712 -0.05241110141178543 0.0 0.3663184287246459 -0.031754195256918166 0.0 0.5548465659990587 -0.035836386071042614 0.0 0.6501042565700003 -0.04776000512322718 0.0 0.7698298956436791 -0.041053173424046886 0.0 0.25866787632286703 -0.028213622182001047 0.0 1.2727287156142828 -0.06459463379630831 0.0 1.0582741404907634 -0.05180631123279807 0.0 1.2864036568218251 -0.029044619799137913 0.0 1.048745957188264 -0.039693820629970046 0.0 -0.04310274397485742 -0.008691155424971793 0.0 1.0268192172963657 -0.06698308449964117 0.0 1.0598963041125407 -0.03004984776013417 0.0 1.2273688685445214 -0.10345462486011008 0.0 -0.10891884866784819 -0.0020108254089835696 0.0 0.45989047277862677 -0.04560913040930343 0.0 1.2514754107658461 -0.1053614812447912 0.0 0.13113030427440672 -0.02166698458458107 0.0 -0.12210263109612271 -0.000778511368954641 0.0 1.2614986721665724 -0.08731444838707424 0.0 0.06276180936474611 -0.02077698040671022 0.0 -0.11164547027442381 -0.002410499321896481 0.0 -0.026195282446361684 0.010173962068528677 0.0 0.04526149359036802 -0.017495360647026288 0.0 -0.06793712513779375 -0.007735873998350562 0.0 0.4180134142485984 -0.04881524203376133 0.0 -0.04790738108911004 -0.010361081594219548 0.0 0.1122811938828007 0.030906052212869118 0.0 -0.08238274730296666 0.005913558237630111 0.0 -0.073035169869239 -0.005789275405513558 0.0 -0.0996143805909546 0.0010239817724448325 0.0 0.03956115662599982 0.017421670976043316 0.0 1.2151429002692402 0.10247162399497771 0.0 0.32783926379083306 0.037585636749372965 0.0 0.30398582456776535 -0.044377920865117125 0.0 0.2555121758746737 -0.01020647509679555 0.0 0.7078646519104645 -0.020597465693634014 0.0 0.3064318701302536 0.00557077706770554 0.0 1.176857485427276 0.053089603804230855 0.0 0.8892336532396959 0.06112690894898404 0.0 0.9288410493195249 -0.08266067109059391 0.0 -0.04772115941922874 -0.004247038874514437 0.0 -0.05905739565282018 -0.003718248230127556 0.0 -0.11917078600109338 -0.0015048486098085732 0.0 -0.04565061972059621 0.004110545358951506 0.0 -0.07978451437891249 -0.004196396681978379 0.0 0.3253406460984404 -0.03845108036779494 0.0 1.2582352813730762 -0.09341440663861335 0.0 0.6256112063385971 -0.06151654440830792 0.0 0.8932832690076682 -0.08568536944145454 0.0 -0.028901730006441195 0.013244308545657727 0.0 0.06041057439284012 -0.022459935754731507 0.0 -0.007818015770019228 -0.014132686786616827 0.0 0.20782961039581355 -0.0380527236855855 0.0 -0.016781814869841264 -0.013916642014291892 0.0 1.2529392637509127 0.10621615081543803 0.0 -0.06702925570471945 -0.0002981072837872757 0.0 -0.015078557947232049 0.011799128927464448 0.0 -0.05166835381151725 0.001031435858059718 0.0 0.05426412269025819 -0.020588990455337474 0.0 0.33746142571218696 0.02469545733087479 0.0 0.6875411288451139 -0.06990244637483145 0.0 0.5067478642384428 -0.05954257335030231 0.0 0.7864822238733861 -0.06822563173834378 0.0 0.2640031183312263 -0.038137894395100874 0.0 0.8188088012161786 -0.08728996016212749 0.0 1.166281158257282 -0.09092685261698517 0.0 1.0672204077648149 -0.0835413633611346 0.0 1.040434686258998 -0.07506470702424146 0.0 0.5914809504683678 -0.06912698818922007 0.0 0.5029975152854727 -0.0640261010400818 0.0 0.39039261051402546 -0.05664143682995748 0.0 0.36567174204746594 -0.05342956806869716 0.0 0.14379834054190935 -0.03224697856148299 0.0 0.78649332382084 -0.08779742389288435 0.0 0.2598238043652168 0.01475172133356123 0.0 0.6070724433056067 0.03792818754176596 0.0 0.06704670487381759 0.006023214602538384 0.0 0.17165016121196547 0.017879720458062087 0.0 -0.07036314160101953 0.0002649489176261736 0.0 1.3327737272525573 -0.024361104633121564 0.0 1.21787680740407 0.04120945040334478 0.0 1.3551693102912166 -0.011977666497378482 0.0 1.326807677725952 -0.06310522266232302 0.0 0.16870204156736424 -0.03498356651806873 0.0 0.35691981077343937 -0.05371256719559689 0.0 0.5589598783268891 0.04691617581023277 0.0 0.08725681345460089 0.015643818382223156 0.0 1.3082348467414295 0.004139085329445454 0.0 1.3482622255515482 -0.032883029951409286 0.0 0.5173662544388857 0.06897961500729764 0.0 1.327219626777815 -0.07658620905929744 0.0 0.5888735341071027 0.0433940390537876 0.0 1.2825081920519035 0.07206907482234724 0.0 0.33290439031783153 0.03372026261228677 0.0 0.7042869826603523 0.06394479112244296 0.0 1.3347361303912963 0.024234644184198635 0.0 1.2313051180592638 -0.024144760178048893 0.0 1.3179364266857387 -0.08660468081783652 0.0 0.8251544494159642 0.06151274266470464 0.0 1.0479229589418326 0.07912029940751328 0.0 1.1071418174279515 0.07249567057583799 0.0 1.2666088825220558 0.0986759958294871 0.0 1.12847090988985 0.09748911460336597 0.0 0.9749541592330423 0.08144610028113629 0.0 0.6689079589556662 0.06753006273278643 0.0 1.2736631502462212 -0.0898879153234288 0.0 0.0 0.0 0.0 1.3078906886524255 0.057917704775281534 0.0 0.91688982234446 0.08979325841973844 0.0 0.3254440126254651 0.042170109991752774 0.0 1.3158082564311149 0.07173681339180059 0.0 0.8994013663466713 0.08555479865101558 0.0 1.2706052952295572 0.09143961427857394 0.0 0.5982125635714255 0.06647036456731574 0.0 1.2615522672128223 0.1037526782252204 0.0 0.5490655372862059 0.06847628641508531 0.0 0.25592822010087873 0.04052614953026805 0.0 1.146407612858405 0.10178033536644995 0.0 0.6613690244119134 0.0750150741063643 0.0 1.0720463388929125 0.1036036054529294 0.0 0.8443939765250326 0.09078489153423548 0.0 0.7753070043062523 0.08900565117109098 0.0 1.1956254941183826 0.08887156164526383 0.0 1.1160701328809388 0.09204507296159486 0.0 1.306071792678056 0.08201034237928276 0.0 0.1558367092763135 0.02906768633952667 0.0 1.151825794907472 0.0791184483559045 0.0 1.216035570586795 0.10667281510834063 0.0 1.1568175033109533 0.10765989271571208 0.0 1.2328013137167357 0.1071255536589056 0.0 1.24302339122037 0.10828036831409528 0.0 1.2909591318337845 0.08718505592917429 0.0 1.1830101955694012 0.06850916285418085 0.0 0.9441372219717943 0.10161645652409924 0.0 1.2287692219959718 0.09253157238076483 0.0 1.2787179445654973 0.0907806810286672 0.0 1.0448582861484392 0.06530470006099481 0.0 1.1615204456235853 0.10962729854166295 0.0 1.0780535597728982 0.10808186288345313 0.0 1.0590104939693918 0.10633232468224377 0.0 1.2317918185052348 0.0967701298086255 0.0 0.0 0.0 0.0 0.6445056246048272 -0.005636456099513458 0.0 1.0778070884100894 0.4342105201995977 0.0 1.1668688883622387 0.4222211752969575 0.0 1.0822811669533159 -0.4268153536412552 0.0 0.8656292752691751 -0.2270417685457755 0.0 0.9789247148393567 -0.25553463128792153 0.0 0.8923718921290147 -0.08501118885063944 0.0 1.2229882083730546 -0.052273114056455176 0.0 1.081628654560648 -0.06400262896454173 0.0 1.198800737797964 -0.10444751018716229 0.0 1.265226384387266 -0.08452638719352744 0.0 1.3153827358499601 -0.05365659502645658 0.0 -0.08324197171985827 -0.0027091594312196937 0.0 -0.05033285748020274 0.007479203211024934 0.0 0.0008509512738059029 0.00985388849586625 0.0 0.0007522348636853693 0.011820270279825839 0.0 0.14708471488090039 0.026652896490264325 0.0 -0.05716450707827902 0.008012868188418414 0.0 0.06141381329852385 0.0217329737177822 0.0 0.2173863991666962 0.0370501103431756 0.0 0.08516065154436359 0.03814489987913073 0.0 -0.03615003033467113 0.014894749465658205 0.0 1.0347947809067286 0.1607805731716904 0.0 -0.07003164942967405 0.004704495252236413 0.0 1.2551006454453586 -0.10041764149836488 0.0 1.1423314230617518 -0.09801879887524402 0.0 0.9511954997136381 -0.09219819013896104 0.0 1.1046532799643076 -0.10187843455586233 0.0 1.2404329296109122 -0.10641651510209858 0.0 0.9139872832842323 -0.09502419680431556 0.0 1.2478617079325711 -0.1065523682679169 0.0 1.0788462566332067 -0.10459839142421644 0.0 1.1338810320202692 -0.10461539207434004 0.0 0.8653274827448247 -0.09435108645976223 0.0 0.9086450859855718 -0.096800354903508 0.0 0.6277571724410342 -0.07706640199736567 0.0 1.1055949876052835 -0.10715972246259835 0.0 1.2343293581537416 -0.10628510220436986 0.0 1.0705176129626275 -0.10499327138210456 0.0 1.168391660750002 -0.08587681073370686 0.0 1.1943319579704461 -0.10840057298044554 0.0 0.6843622365355077 -0.08109557897984211 0.0 1.142588404923099 -0.10565210435446663 0.0 0.9413038803509896 -0.0982