<?xml version="1.0"?>
<VTKFile type="UnstructuredGrid"  version="0.1"  >
<UnstructuredGrid>
<Piece  NumberOfPoints="1289" NumberOfCells="2413">
<Points>
<DataArray  type="Float64"  NumberOfComponents="3"  format="ascii">0 0 0  0 0.41 0  2.2 0.41 0  2.2 0 0  0.1 0.1 0  0.1 0.3 0  0.8 0.3 0  0.8 0.1 0  0.25 0.2 0  0.248976 0.210065 0  0.245948 0.219718 0  0.241038 0.228563 0  0.234448 0.23624 0  0.226448 0.242432 0  0.217365 0.246888 0  0.207571 0.249423 0  0.197468 0.249936 0  0.187467 0.248404 0  0.17798 0.24489 0  0.169395 0.239539 0  0.162062 0.232569 0  0.156283 0.224265 0  0.152293 0.214968 0  0.150257 0.205058 0  0.150257 0.194942 0  0.152293 0.185032 0  0.156283 0.175735 0  0.162062 0.167431 0  0.169395 0.160461 0  0.17798 0.15511 0  0.187467 0.151596 0  0.197468 0.150064 0  0.207571 0.150577 0  0.217365 0.153112 0  0.226448 0.157568 0  0.234448 0.16376 0  0.241038 0.171437 0  0.245948 0.180282 0  0.248976 0.189935 0  1.1 0 0  1.1 0.41 0  0.1 0.2 0  0.45 0.1 0  0.45 0.3 0  0.55 0 0  0.275 0.1 0  0.275 0.3 0  0.275 0 0  0.55 0.41 0  0 0.205 0  0.825 0 0  0.825 0.41 0  0.275 0.41 0  0.1 0.15 0  0.1875 0.1 0  0.1 0.25 0  0.1875 0.3 0  0.132322 0.2 0  0.241426 0.253518 0  0.241426 0.146482 0  0.264574 0.17974 0  0.264574 0.22026 0  0.138434 0.187348 0  0.153372 0.150948 0  0.148413 0.164094 0  0.176495 0.136535 0  0.22768 0.143571 0  0.138434 0.212652 0  0.148413 0.235906 0  0.176495 0.263465 0  0.22768 0.256429 0  0.23125 0.3 0  0.24769 0.24094 0  0.23125 0.1 0  0.24769 0.15906 0  0.26253 0.193641 0  0.190482 0.137872 0  0.166753 0.146661 0  0.157737 0.244461 0  0.190482 0.262128 0  0.203107 0.261264 0  0.253635 0.22977 0  0.203107 0.138736 0  0.253635 0.17023 0  0.261028 0.206206 0  0.167707 0.251809 0  0.143629 0.224191 0  0.215302 0.2591 0  0.270465 0.245894 0  0.215302 0.1409 0  0.270465 0.154106 0  0.284052 0.202587 0  0.14375 0.3 0  0.209375 0.3 0  0.225966 0.278501 0  0.209375 0.1 0  0.225966 0.121499 0  0.211613 0.273759 0  0.211613 0.126241 0  0.143629 0.175809 0  0.1 0.175 0  0.133484 0.164832 0  0.144491 0.249539 0  0.1 0.225 0  0.133484 0.235168 0  0.3625 0.3 0  0.25691 0.253381 0  0.25691 0.146619 0  0.277205 0.188698 0  0.184724 0.275712 0  0.237372 0.268285 0  0.184724 0.124288 0  0.237372 0.131715 0  0.197578 0.273149 0  0.193656 0.286994 0  0.197578 0.126851 0  0.193656 0.113006 0  0.122953 0.187671 0  0.118362 0.153758 0  0.155372 0.258107 0  0.122953 0.212329 0  0.118362 0.246242 0  0.276394 0.27264 0  0.276394 0.12736 0  0.280965 0.170013 0  0.253125 0.3 0  0.14375 0.1 0  0.253125 0.1 0  0.269489 0.26014 0  0.269489 0.13986 0  0.303639 0.184297 0  0.165625 0.3 0  0.134742 0.273113 0  0.257831 0.274737 0  0.255279 0.128499 0  0.3625 0.1 0  0.165625 0.1 0  0.162031 0.132368 0  0.134955 0.126405 0  0.149334 0.125568 0  0.142936 0.139597 0  0.12695 0.140259 0  0.242514 0.285501 0  0.242514 0.114499 0  0.1 0.125 0  0.117483 0.12555 0  0.11154 0.139776 0  0.121875 0.1 0  0.109143 0.1125 0  0.126805 0.114 0  0.220313 0.29129 0  0.351562 0.287369 0  0.207222 0.2866 0  0.220312 0.10871 0  0.1375 0 0  0.20625 0 0  0.207222 0.1134 0  0.11722 0.17118 0  0.1 0.1625 0  0.0778409 0.16875 0  0.0862762 0.15625 0  0 0.15375 0  0 0.1025 0  0.11722 0.22882 0  0.1 0.2375 0  0 0.3075 0  0.0862762 0.23125 0  0.0598995 0.222547 0  0.0860223 0.2125 0  0.289584 0.181469 0  0.300267 0.16446 0  0.163832 0.269071 0  0.149597 0.273325 0  0.1 0.275 0  0.268498 0.285953 0  0.31875 0.3 0  0.294154 0.254672 0  0.296875 0.3 0  0.293558 0.271845 0  0.285095 0.286799 0  0.324298 0.264316 0  0.307866 0.263745 0  0.317093 0.234901 0  0.315485 0.281219 0  0.316547 0.250625 0  0.344693 0.243731 0  0.331592 0.251147 0  0.35129 0.270663 0  0.338689 0.263683 0  0.340625 0.3 0  0.249849 0.264383 0  0.265097 0.11422 0  0.284688 0.156136 0  0.242188 0.324017 0  0.0856613 0.2625 0  0.132812 0.0612217 0  0.264062 0.0612217 0  0.198437 0.07598340000000001 0  0.0860223 0.1375 0  0.0794526 0.191089 0  0.285228 0.140397 0  0.298655 0.148737 0  0.31875 0.1 0  0.327335 0.15374 0  0.296875 0.1 0  0.312289 0.155283 0  0.313348 0.135607 0  0.321802 0.173916 0  0.298433 0.134116 0  0.112124 0.2625 0  0.127526 0.259083 0  0.121875 0.3 0  0.0682687 0.241503 0  0.1 0.2875 0  0.117762 0.28125 0  0.107813 0.3 0  0.103906 0.313849 0  0.0778409 0.28125 0  0.1375 0.41 0  0.0862762 0.29375 0  0.08886860000000001 0.24375 0  0.307812 0.338778 0  0.307812 0.292227 0  0.33216 0.279164 0  0.387888 0.266414 0  0.264063 0.31948 0  0.110937 0.07598340000000001 0  0.242188 0.07598340000000001 0  0.319914 0.11839 0  0.340625 0.1 0  0.334448 0.133793 0  0.329687 0.108539 0  0.346259 0.118491 0  0.360334 0.173636 0  0.327539 0.205033 0  0.132812 0.288712 0  0.362436 0.278836 0  0.368105 0.259418 0  0.4125 0.41 0  0.329687 0.324017 0  0.329687 0.292306 0  0.285938 0.318952 0  0.417187 0.338778 0  0.324481 0.14148 0  0.351562 0.106771 0  0.40625 0.1 0  0.341028 0.168342 0  0.319221 0.190479 0  0.335292 0.184501 0  0.305563 0.20794 0  0.220313 0.31948 0  0.132812 0.332772 0  0.0865876 0.311259 0  0.0598995 0.302453 0  0.0906541 0.343255 0  0.353543 0.255837 0  0.36574 0.237633 0  0.405007 0.254279 0  0.275795 0.352123 0  0.4125 0 0  0.35493 0.137394 0  0.366563 0.120618 0  0.35917 0.205246 0  0.198438 0.318952 0  0.0626109 0.263892 0  0.40625 0.3 0  0.354809 0.155936 0  0.386512 0.146872 0  0.373101 0.159939 0  0.384375 0.1 0  0.343394 0.19929 0  0.350682 0.185683 0  0.368101 0.189748 0  0.344016 0.221511 0  0.391108 0.213329 0  0.376279 0.204783 0  0.398843 0.182768 0  0.375804 0.222746 0  0.390665 0.196958 0  0.394004 0.23518 0  0.359883 0.222828 0  0.419908 0.204359 0  0.404243 0.204783 0  0.412615 0.224526 0  0.20625 0.41 0  0.165625 0.325257 0  0.0347982 0.244954 0  0.379558 0.247154 0  0.34165 0.147603 0  0.372264 0.136992 0  0.388988 0.121989 0  0.373437 0.108554 0  0.351562 0.31948 0  0.391367 0.16527 0  0.399572 0.223324 0  0.452011 0.227371 0  0.40877 0.239392 0  0.431491 0.237337 0  0.421224 0.250459 0  0.449619 0.262098 0  0.418865 0.276779 0  0.437063 0.252274 0  0.415673 0.263227 0  0.430988 0.266772 0  0.402767 0.273419 0  0.452967 0.244883 0  0.428125 0.3 0  0.408502 0.286186 0  0.384375 0.3 0  0.392267 0.285807 0  0.465927 0.219339 0  0.43489 0.283846 0  0.376424 0.286289 0  0.625 0.3 0  0.473533 0.205186 0  0.461713 0.255517 0  0.5375 0.3 0  0.465725 0.235405 0  0.44631 0.201425 0  0.471875 0.3 0  0.494307 0.227729 0  0.459448 0.206736 0  0.462294 0.180792 0  0.478933 0.227536 0  0.486793 0.21381 0  0.486322 0.251373 0  0.50065 0.215318 0  0.54005 0.175389 0  0.474633 0.189893 0  0.512916 0.208697 0  0.49531 0.199967 0  0.475889 0.175275 0  0.625 0.1 0  0.459311 0.153933 0  0.513645 0.242704 0  0.392892 0.248539 0  0.374815 0.271913 0  0.365974 0.14871 0  0.395312 0.109184 0  0.417061 0.123981 0  0.483196 0.277003 0  0.381967 0.179632 0  0.429898 0.219374 0  0.433473 0.206165 0  0.43149 0.181038 0  0.444208 0.215487 0  0.472985 0.247309 0  0.49375 0.3 0  0.475579 0.262714 0  0.49916 0.274293 0  0.501175 0.184809 0  0.514164 0.225681 0  0.543648 0.214977 0  0.5341630000000001 0.23481 0  0.527396 0.216171 0  0.5375 0.1 0  0.534548 0.202315 0  0.561545 0.192513 0  0.5494289999999999 0.201221 0  0.570923 0.218346 0  0.412582 0.149833 0  0.489327 0.264745 0  0.502439 0.254775 0  0.462391 0.271166 0  0.496775 0.241732 0  0.5294410000000001 0.268606 0  0.482812 0.291099 0  0.46879 0.285038 0  0.452663 0.284065 0  0.51789 0.257882 0  0.53408 0.252026 0  0.560142 0.243543 0  0.545708 0.243474 0  0.547532 0.229019 0  0.55282 0.265323 0  0.398971 0.153424 0  0.400349 0.135684 0  0.410135 0.168145 0  0.428823 0.161323 0  0.415266 0.183779 0  0.329687 0.0810483 0  0.395312 0.0612217 0  0.373437 0.318952 0  0.439062 0.324017 0  0.561816 0.229354 0  0.585029 0.239287 0  0.431827 0.139854 0  0.446796 0.168929 0  0.351562 0.07598340000000001 0  0.395313 0.318944 0  0.54337 0.150762 0  0.460937 0.31948 0  0.418412 0.137529 0  0.428125 0.1 0  0.442783 0.152332 0  0.450742 0.134294 0  0.373437 0.0805201 0  0.384383 0.342558 0  0.482812 0.318952 0  0.429239 0.127457 0  0.444274 0.117405 0  0.426548 0.113815 0  0.49375 0.1 0  0.488954 0.113984 0  0.457973 0.121842 0  0.471621 0.137346 0  0.515625 0.325257 0  0.48125 0.41 0  0.417187 0.07598340000000001 0  0.496363 0.126778 0  0.479043 0.155715 0  0.439062 0.0805201 0  0.481795 0.126919 0  0.471875 0.1 0  0.489227 0.142159 0  0.515625 0.1 0  0.520062 0.147117 0  0.501244 0.161791 0  0.505431 0.112984 0  0.505344 0.14029 0  0.526563 0.119081 0  0.5181750000000001 0.131908 0  0.539868 0.136937 0  0.460937 0.108383 0  0.474242 0.114415 0  0.460937 0.0810483 0  0.487841 0.167168 0  0.526563 0.0612217 0  0.526563 0.106406 0  0.537619 0.112743 0  0.58125 0.1 0  0.559375 0.1 0  0.482812 0.08105569999999999 0  0.471883 0.0587655 0  0.570312 0.129396 0  0.548437 0.07598340000000001 0  0.504687 0.08105569999999999 0  0.49375 0.0470127 0  0.570312 0.112663 0  0.592798 0.12103 0  0.553986 0.12103 0  0.570312 0.0805201 0  0.48125 0 0  0.114787 0.2 0  0.160769 0.284765 0  0.175816 0.288361 0  0.162602 0.116048 0  0.154687 0.07598340000000001 0  0.176562 0.0805201 0  0.0598995 0.147547 0  0.307812 0.109924 0  0.291279 0.117157 0  0.278491 0.112989 0  0.285937 0.07598340000000001 0  0.307812 0.0805201 0  0.296928 0.196743 0  0.318141 0.218507 0  0.330208 0.227509 0  0.301397 0.225668 0  0.302706 0.241401 0  0.292574 0.21424 0  0.282762 0.230935 0  0.284351 0.244775 0  0.269553 0.23261 0  0.278572 0.217242 0  0.226924 0.342606 0  0.446928 0.185396 0  0.515625 0.3 0  0.504687 0.288879 0  0.515256 0.276534 0  0.529479 0.285328 0  0.58125 0.3 0  0.541969 0.272936 0  0.559375 0.3 0  0.556796 0.282529 0  0.543473 0.287206 0  0.581429 0.267774 0  0.566728 0.271171 0  0.570869 0.255585 0  0.577404 0.283865 0  0.603125 0.3 0  0.597531 0.28035 0  0.570312 0.338778 0  0.592188 0.292492 0  0.603513 0.256094 0  0.614063 0.286265 0  0.610329 0.27064 0  0.632708 0.251285 0  0.657223 0.261594 0  0.618789 0.257807 0  0.614188 0.22987 0  0.630935 0.265614 
[...]
<PointData  Vectors="v"> 
	<DataArray  type="Float64"  Name="v"  NumberOfComponents="3" format="ascii">
0.0 0.0 0.0 0.0 0.0 0.0 0.0 0.0 0.0 0.0 0.0 0.0 0.7962339655806764 -0.19598447021790294 0.0 0.8404042637441455 0.20776665805564468 0.0 1.1682595972180974 -0.05923671604458872 0.0 1.1368874598917902 0.05599869221131471 0.0 0.0 0.0 0.0 0.0 0.0 0.0 0.0 0.0 0.0 0.0 0.0 0.0 0.0008446927632733981 0.0007747542270352593 0.0 -0.000310721749195455 -0.0006740418459534297 0.0 0.0003009203140961821 0.0005335389484319354 0.0 0.0 0.0 0.0 0.0 0.0 0.0 0.0 0.0 0.0 0.0 0.0 0.0 0.0 0.0 0.0 0.0 0.0 0.0 0.0 0.0 0.0 0.0 0.0 0.0 0.0 0.0 0.0 0.0 0.0 0.0 0.0 0.0 0.0 0.0 0.0 0.0 0.0 0.0 0.0 0.0 0.0 0.0 0.0 0.0 0.0 0.0 0.0 0.0 0.0 0.0 0.0 0.0 0.0 0.0 0.0006586439884016662 -0.0011440619743064977 0.0 0.000921756493571906 -0.0014615366059534754 0.0 0.0008545764314957894 -0.000805869007488137 0.0 0.0 0.0 0.0 0.0 0.0 0.0 0.0 0.0 0.0 0.0 0.0 0.0 0.0 0.0 0.0 0.761328542065841 -0.0012907341683688896 0.0 1.2753430003682125 0.08275568329095216 0.0 1.2664765528145165 -0.07755348738486964 0.0 0.0 0.0 0.0 1.353630689292502 -0.13299409007544272 0.0 1.3581846777411626 0.15489076409421165 0.0 0.0 0.0 0.0 0.0 0.0 0.0 1.0 0.0 0.0 0.0 0.0 0.0 0.0 0.0 0.0 0.0 0.0 0.0 0.8425970295935424 -0.23189233028738518 0.0 1.1513917747039806 -0.34430562851988644 0.0 0.8637784614166206 0.2293011889255768 0.0 1.1662868296161 0.3541248125661954 0.0 0.42823543319582846 -0.003973842475425411 0.0 0.16454866513118369 0.06223947194372495 0.0 0.17036075186314747 -0.06114937935255382 0.0 -0.0274369008567937 -0.038331864095618146 0.0 -0.025966425616847574 0.03633392133670867 0.0 0.33437919475797684 -0.2798469018654706 0.0 0.8578974746680489 -0.6734586984295451 0.0 0.6399975286335137 -0.6881542891359904 0.0 1.2061540099386319 -0.6132878710472746 0.0 0.41509621870961155 -0.06931084242203105 0.0 0.3304458964911844 0.268743776651855 0.0 0.642827081486432 0.6693228123496554 0.0 1.1851343705516262 0.6153960285749742 0.0 0.4084718555140621 0.07128418143711508 0.0 1.3132600477845993 0.2609096794029298 0.0 0.3242272505248519 0.2527976936666096 0.0 1.302613573302877 -0.24052963176405173 0.0 0.31456915795159185 -0.23936212369465537 0.0 -0.033484932397026455 -0.016951039408900078 0.0 1.1249292651605123 -0.3987511109010663 0.0 1.0932111039322903 -0.7243402956561543 0.0 0.8520481932583184 0.7707432973027484 0.0 1.1313220916116975 0.39955830299991224 0.0 0.7593071974092714 0.18603328093281393 0.0 0.1088625045870836 0.05158223350538747 0.0 0.769403761339352 -0.18188678680512657 0.0 0.11125127034850714 -0.049855068921139535 0.0 -0.029569328660232902 0.019103465531548836 0.0 1.027494696731895 0.7188810779357364 0.0 0.4423786561251558 0.529193656479348 0.0 0.4581442727250829 0.1780759753494445 0.0 0.27170037785774365 0.06914063419664539 0.0 0.4639639312022731 -0.17330230322776755 0.0 0.2771822345740201 -0.0646709638054535 0.0 -0.0751262555877559 0.0023500527204853147 0.0 0.9654762557282592 0.3174243598508068 0.0 1.2605780042075738 0.31324180925585504 0.0 1.2451450979170668 0.28889904285382356 0.0 1.2348112740992079 -0.30762754557081484 0.0 1.2477871127725468 -0.2809999403885495 0.0 1.2201478835438446 0.33109748472736744 0.0 1.2261346129529649 -0.32260104930598776 0.0 0.4428902309725511 -0.5445733029123949 0.0 0.802017837189985 -0.139634145892501 0.0 0.671512187149153 -0.4196989359892449 0.0 0.877361571020309 0.5938483404915905 0.0 0.7993036757626636 0.14280048197476775 0.0 0.6764880831697553 0.4201514808884054 0.0 1.292870920558167 -0.007189969102729323 0.0 0.2933062447506401 0.1446676321044646 0.0 0.2948319931923876 -0.1343782818123638 0.0 -0.054325675620338514 -0.012898423503160792 0.0 1.2650548160938493 0.4718575490620563 0.0 0.7687552316625773 0.12081888996157082 0.0 1.2611238076048998 -0.4732609860992319 0.0 0.7890068466042172 -0.11560493696036994 0.0 1.2755835400409192 0.4181226852829668 0.0 1.2540061522186459 0.40117909907874294 0.0 1.2715813531518356 -0.4141986546365717 0.0 1.244685984738037 -0.38108585338427514 0.0 0.5835281715243689 -0.16052868295011646 0.0 0.7964356158767392 -0.3318093587008074 0.0 1.0104237742685032 0.6038114254122969 0.0 0.5917485550348952 0.15060771739494008 0.0 0.8125576670228506 0.33170519198400683 0.0 0.7457990317777539 0.08090641743812932 0.0 0.782665114929164 -0.07300385936047146 0.0 0.05230733701789033 -0.022070622429408902 0.0 1.3635007856248877 0.20749690709803043 0.0 0.9298218133206605 -0.32221564313937623 0.0 1.3445196478249943 -0.19002779576086934 0.0 0.4092790920578631 0.09102931256168341 0.0 0.4272148311895072 -0.07822903672237427 0.0 -0.05455297794059609 -0.00804818246717248 0.0 1.0573609345742727 0.3540277208857508 0.0 0.9431549081248767 0.3914838069629192 0.0 0.9222573917523216 0.11236132149728309 0.0 0.8241718956615586 -0.08695243394083768 0.0 1.306736608058835 0.016687789768004384 0.0 1.0275058254126608 -0.3451760634313531 0.0 1.074491769217961 -0.5703140690926469 0.0 0.9301334637691633 -0.3893878564220967 0.0 0.9974669433001451 -0.4386391021443008 0.0 0.9329313999985234 -0.5428222199922691 0.0 0.8655324567651531 -0.4064961530346397 0.0 1.2733005856548212 0.23291888236237016 0.0 1.2715807480749017 -0.219594067161138 0.0 0.8526567909985451 -0.2356312046380841 0.0 0.8790508376555451 -0.30994986483802994 0.0 0.8528964039565073 -0.2990444189568242 0.0 0.8514087914196692 -0.25639552835263657 0.0 0.8542122084576401 -0.2527775101305717 0.0 0.8962736185712674 -0.31946019374866386 0.0 1.329273164138047 0.3156644849705352 0.0 1.0846911652634237 -0.0023850062687952546 0.0 1.3146067579551148 0.3624203302472049 0.0 1.3212954723633672 -0.2960167658048443 0.0 0.0 0.0 0.0 0.0 0.0 0.0 1.299412669528283 -0.3494294541691676 0.0 0.7142441200314987 -0.26731660527009127 0.0 0.8203921749399119 -0.21076652974777346 0.0 0.8711715732831149 -0.11075927640179442 0.0 0.8624417351570439 -0.16377055878168081 0.0 0.9375 0.0 0.0 0.7500000000000001 0.0 0.0 0.7224723556623346 0.2653076968656862 0.0 0.8240361170222409 0.20014577902577482 0.0 0.7499999999999999 0.0 0.0 0.8697160893088071 0.12782212764649556 0.0 0.9287121642177095 0.04283252060689385 0.0 0.8481110729215169 0.04506632471793637 0.0 -0.03484996210911999 -0.011531803497124203 0.0 0.0915231883565931 -0.01750789607447611 0.0 1.1150098472041803 0.5548005000911079 0.0 1.019010305143962 0.4731645093387991 0.0 0.8809706454514443 0.2454784892049615 0.0 1.200057192114978 0.13909550379059088 0.0 1.3289041396359191 0.05986441770260701 0.0 0.35224171952525457 0.03806852861184475 0.0 1.3561883801641168 0.1029346492594882 0.0 0.7140090863958001 0.0538418604864348 0.0 1.171164564148951 0.10028481558415626 0.0 0.514737586802188 0.015927456423542583 0.0 0.49632596304070054 0.030116186563201513 0.0 0.06990296447287078 0.013485647462927762 0.0 0.9566953213706353 0.03459211274182947 0.0 0.2572565499278268 0.022244598761375495 0.0 0.16344789467185283 0.00862525871325649 0.0 0.2678216220948492 0.014717043756036281 0.0 0.6667985338636792 -0.004732158340561527 0.0 0.49848821093047085 0.0071003403312516955 0.0 1.3158461933303673 0.019334659829064457 0.0 0.5424244201191334 0.06207578449117722 0.0 1.2301827660199023 -0.14200422820607522 0.0 0.20213827558207806 -0.03757122220533183 0.0 1.205830504319517 0.1735985462457772 0.0 0.8828228340268109 0.17974458544480978 0.0 0.7011194932201025 -0.16794833414333762 0.0 1.1155338772237733 -0.0942176849266615 0.0 1.0385252399713982 -0.22373619169774853 0.0 0.8637517223950478 -0.18265300192998407 0.0 0.8754192945172635 -0.025596911458126627 0.0 0.4395336843031238 -0.04808153292245414 0.0 0.2905911619217953 -0.03302209761328668 0.0 1.3289463623341007 -0.041845283549037646 0.0 0.2085561590556616 -0.013373220270555144 0.0 1.355408865001254 -0.08632466462032062 0.0 0.19157013505926065 -0.018986076862285733 0.0 0.5356666768539203 -0.015633807954260386 0.0 -0.0015670090414358119 -0.011107294247788483 0.0 0.5722977232682732 -0.03142940552001982 0.0 0.8788899086013955 0.2971646342796227 0.0 0.8795587089659371 0.41078346876998334 0.0 0.8850936153518314 0.27034723407128936 0.0 0.9122187560906398 0.10984897705018017 0.0 0.8651781324632623 0.2233022820622087 0.0 0.9047266750212861 0.3037307131259294 0.0 0.8572371184710144 0.23352992536825246 0.0 0.8020266697813636 0.183389003599071 0.0 0.8670542830067804 0.16153322744436796 0.0 0.0 0.0 0.0 0.8415179572340074 0.1766987998202034 0.0 0.8706549592273867 0.17102752065955779 0.0 1.2131751247326341 0.049770710912243256 0.0 1.2376299171919016 0.06501618420124555 0.0 0.8903336302779553 0.013292975305225717 0.0 0.5943051594683814 -0.02590729777205564 0.0 1.279901047915515 0.14711816180847112 0.0 0.7176163587313387 -0.1737203497719103 0.0 1.1779653845897529 -0.1645236732503999 0.0 0.9986370802670447 -0.01975686925432806 0.0 1.3235219050982847 -0.007674638288389719 0.0 0.585544013550186 -3.836352243394228e-05 0.0 1.2204270443898282 -0.01255803946167772 0.0 0.9834625409608879 0.00929483112535988 0.0 -0.0045836715310960605 -0.006861629559776618 0.0 -0.09618932284778874 0.0012146183601688888 0.0 0.9448572444103855 0.3412431565019207 0.0 0.8779635495931226 -0.01837312838056793 0.0 0.4276939149134709 -0.008077821484466105 0.0 0.0 0.0 0.0 1.3287303733163667 0.03750390416100356 0.0 1.2126879630672658 0.024996048530471215 0.0 1.317296215916021 0.11462934403190528 0.0 1.252466771678396 -0.044415779920463264 0.0 0.4136240536744 -0.013713890853470042 0.0 1.2282684976389409 0.010566086942750335 0.0 1.2910108880596984 0.05686500438404495 0.0 0.041012877318487045 -0.009684108395389057 0.0 -0.08254581224007507 -0.005079197511821702 0.0 -0.06770761300332694 -0.007374618741105509 0.0 -0.0812193454069405 0.003046659505953353 0.0 1.1858316486501115 0.21974241959055987 0.0 0.7774502698255407 0.19848486192420278 0.0 0.7779133873543485 0.15423251322607062 0.0 0.7857366825235799 0.10690501685354613 0.0 0.6205733571783068 0.1109821995976003 0.0 0.3531188474046819 0.001544344914873045 0.0 0.0933843837739337 0.003985653012415062 0.0 0.364990574111958 -0.020552048217345055 0.0 1.072010038658209 0.07674542866976519 0.0 0.0 0.0 0.0 0.5198690513402929 0.011515770664798145 0.0 0.9318271213778908 0.02929005090153992 0.0 -0.10942916640466284 0.0007001038248687101 0.0 1.0970244674267147 0.2670545301777136 0.0 0.9003329164056482 0.11239316574175294 0.0 1.2805298854297373 -0.04960729860685745 0.0 0.1867085813348755 -0.003529247085628713 0.0 0.3587018626795578 0.017950216050112017 0.0 0.14298768145075316 0.00030717355532233537 0.0 1.3028306461836339 0.03928656053594661 0.0 -0.10616737485566848 -0.0014893994305464886 0.0 -0.07757857993548163 -0.006407495016104787 0.0 -0.09783048950809527 -0.004421686733638981 0.0 -0.04355723151119278 0.007087782363296008 0.0 -0.09556007152444582 0.0011627176154602244 0.0 -0.11590177612008307 0.00016462506074849914 0.0 -0.0669419759698357 -0.0018949089556428928 0.0 -0.04138982674617966 0.0035473321125703574 0.0 -0.11974212841575539 -0.001906782566495484 0.0 0.07530169041683857 -0.0019177811441227002 0.0 -0.0388380503419295 0.005767864575572306 0.0 -0.12310472457473587 -0.0010212733636861529 0.0 -0.12178844528029911 -0.0006260863170721217 0.0 -0.02375233461461606 -0.0023559354063695396 0.0 0.0 0.0 0.0 0.9464214956547994 0.25547396597845884 0.0 0.9513521255852493 0.0400991259353363 0.0 0.22489938068691306 -0.0043260228905133875 0.0 0.3086491127056613 -0.004399670190509883 0.0 0.5442584249249915 0.021053689364843167 0.0 0.9121855597956099 0.043074253028430314 0.0 1.1919624493295968 0.034613978234828986 0.0 1.3537922008134018 0.01463947379117851 0.0 0.08792511740237899 0.0023794063862243625 0.0 -0.03591456637861518 0.0001822088183547943 0.0 0.02269739321153271 -0.011688968327444106 0.0 0.13543045056269395 -0.008701505035924382 0.0 0.12561404981475863 -0.013824368329256083 0.0 0.31556876230973757 -0.02330277831580159 0.0 0.5754283449668892 -0.05109656527698587 0.0 0.8596952180064922 -0.05255840577495424 0.0 0.36686556718467395 -0.03185928523313384 0.0 0.5553592446783999 -0.035914458336772925 0.0 0.6507045323648077 -0.047904477387249005 0.0 0.7703332352513061 -0.041141421614066774 0.0 0.25922131509901347 -0.02836280674056587 0.0 1.2730285062044417 -0.06478218269618663 0.0 1.0587648014204134 -0.0519520862153138 0.0 1.286691905832722 -0.02915831381512824 0.0 1.0491990812823586 -0.03979689021151102 0.0 -0.04281905187827286 -0.008855389336642086 0.0 1.027385242790694 -0.06719052019844664 0.0 1.0602989445123139 -0.030124894857961597 0.0 1.2263653528896852 -0.1032286016678054 0.0 -0.10887461979699174 -0.0022366512466166586 0.0 0.46055813193857725 -0.045845378111483225 0.0 1.2513335841914461 -0.10562663908901476 0.0 0.1316279042497787 -0.021863524141407045 0.0 -0.12211367302657793 -0.0007954912319618289 0.0 1.261721962122071 -0.08756836128527865 0.0 0.06319443564982964 -0.02120744852775029 0.0 -0.11157313198000214 -0.0025250858940632356 0.0 -0.02656957820362229 0.010001327480055763 0.0 0.045681714820122996 -0.017800691863182352 0.0 -0.0677393896181832 -0.008091229611190659 0.0 0.4187076144547552 -0.04917787737134592 0.0 -0.04768664084799015 -0.010867512126432085 0.0 0.1118389367852301 0.029894585161881853 0.0 -0.0826195698394147 0.005667318956824302 0.0 -0.07294953512615798 -0.006460305432314476 0.0 -0.09968125309071013 0.0005641487707168133 0.0 0.03905919304811456 0.0171190879034927 0.0 1.2161080574643897 0.10278041194837031 0.0 0.32712271829758055 0.037363107436675966 0.0 0.30457787547591364 -0.04497441666101881 0.0 0.25579682885690747 -0.010134028297999167 0.0 0.7082205834834457 -0.02060548693556421 0.0 0.30609212816828274 0.005732215547618475 0.0 1.1764642088297923 0.05299492176522994 0.0 0.888631891079545 0.06100253987642547 0.0 0.9294737151928187 -0.08300506548922454 0.0 -0.047908716136586725 -0.004027321737896435 0.0 -0.05884785429693245 -0.003658872493937488 0.0 -0.11912038993920744 -0.0014428151101327084 0.0 -0.04593203391809089 0.004154053409259876 0.0 -0.07959967424658627 -0.004200799001231032 0.0 0.32597880905726206 -0.038726791925914245 0.0 1.258374253131209 -0.0936860134111374 0.0 0.6263321819407489 -0.06183438652132083 0.0 0.8939037320059925 -0.08608861192081228 0.0 -0.02926760571021653 0.012692981383076717 0.0 0.06078363950573607 -0.023115166897618562 0.0 -0.007713947752068126 -0.015212508531495172 0.0 0.20825071709527485 -0.03888169442383173 0.0 -0.016599836391459174 -0.01477032930759103 0.0 1.253124167334985 0.1059437153884306 0.0 -0.06708474338660939 -0.0012783001797305928 0.0 -0.015212456173437156 0.010434357857519233 0.0 -0.05175814179146978 -0.0001706247816553018 0.0 0.054205735805243814 -0.021994013703477238 0.0 0.3369187596709133 0.024719158836504024 0.0 0.688261818600003 -0.0702934285953362 0.0 0.5074453508129974 -0.060025979987230124 0.0 0.7871757852629275 -0.06850061162344781 0.0 0.26462081266645415 -0.038577181108476105 0.0 0.8193217174257286 -0.08784141585566756 0.0 1.1666592315357123 -0.09123102677490459 0.0 1.0677582106948094 -0.08383116301984478 0.0 1.0410014706720707 -0.07531376047444656 0.0 0.5921392873922846 -0.06969716589569089 0.0 0.5035462624706685 -0.06473275714874119 0.0 0.39062986661681204 -0.05763241452798795 0.0 0.36607096148082574 -0.054314184567166565 0.0 0.14404107254188062 -0.03327974391007004 0.0 0.7867909201141664 -0.08844536996775652 0.0 0.25937105334467264 0.014846957601715354 0.0 0.6065227496481569 0.0379296231240644 0.0 0.06668087298590782 0.006129209596232922 0.0 0.17113749271265113 0.0178664800015288 0.0 -0.07057288636436235 0.00039493546609824503 0.0 1.332672893043245 -0.024390515619113765 0.0 1.217842921661812 0.04111083881356185 0.0 1.3552587729191876 -0.012091465097161126 0.0 1.326769674372935 -0.06328108887491349 0.0 0.16881106068517548 -0.0361788023409625 0.0 0.35672569262339354 -0.054912211050623 0.0 0.5582677201175305 0.0467963538080272 0.0 0.08676559599748829 0.015555397851397302 0.0 1.3081559402743619 0.004084382401885649 0.0 1.3483337512768885 -0.03302489515829567 0.0 0.5167489783635766 0.06816716868034219 0.0 1.3271757050737165 -0.07678464577284132 0.0 0.5882442882560137 0.04332736228626319 0.0 1.2822062678341706 0.07186599581654766 0.0 0.33223983988032646 0.03358883298850761 0.0 0.7035171796462338 0.06369738137841692 0.0 1.3346243153267503 0.024153119640782976 0.0 1.2313043687694436 -0.024232326952639077 0.0 1.3178273256679438 -0.0868091378550098 0.0 0.8244858722662729 0.06135230565871771 0.0 1.0473180755075395 0.07886428629060149 0.0 1.1066090184086932 0.07230077695990281 0.0 1.2664899874439772 0.09834553561460667 0.0 1.1279952786872396 0.09709198340413426 0.0 0.9742653543012704 0.0811357423906572 0.0 0.6680756859574934 0.06717292656175394 0.0 1.2733782089802037 -0.09004478744945016 0.0 0.0 0.0 0.0 1.3078491497562035 0.05775840952910692 0.0 0.9161758899918032 0.08932877181527132 0.0 0.3246829359131504 0.04180563104132542 0.0 1.3157688875671116 0.07152688442546148 0.0 0.8986466315239885 0.08514139900779283 0.0 1.2703886208273283 0.09113227057217597 0.0 0.5973589287244822 0.06601853354991688 0.0 1.26157776960252 0.10343384848524576 0.0 0.5482823320676877 0.06782621928228588 0.0 0.2552014399035942 0.039981258116222725 0.0 1.1460468252035412 0.10136394404141581 0.0 0.6605393346559431 0.07447610010462544 0.0 1.0716883813292302 0.10313255120920549 0.0 0.8437028901913407 0.09022068651097699 0.0 0.7747274536064599 0.08835239518361059 0.0 1.1951933250887259 0.08855911398328932 0.0 1.1155368175920426 0.09168751645437012 0.0 1.3060975712933858 0.08176892699461237 0.0 0.15518799014236395 0.02865562843124849 0.0 1.152212218134069 0.07901124851348378 0.0 1.2159928463547187 0.10630791260559914 0.0 1.1567303809122436 0.10726014243214542 0.0 1.2333834366307062 0.10705597525864842 0.0 1.2433938888220037 0.10808453727257551 0.0 1.2910809569861648 0.08693811656956899 0.0 1.1831735950612021 0.06835987835423098 0.0 0.9441152575165274 0.10107484303353788 0.0 1.2292417347900213 0.09243991811027422 0.0 1.27892386587119 0.09055208198913087 0.0 1.0451889618742565 0.06519948756904774 0.0 1.1618203255693018 0.10934707501781778 0.0 1.0785687013177434 0.10780433481251883 0.0 1.0589110484124402 0.10587007549726253 0.0 1.232351895737204 0.09676688391115973 0.0 0.0 0.0 0.0 0.6445057606792183 -0.005590849519092064 0.0 1.0778288031832823 0.434259671353339 0.0 1.1668972698371072 0.4222777426180041 0.0 1.0822572079940613 -0.42676444921262097 0.0 0.8656028255325072 -0.22701274193006574 0.0 0.9788855532315935 -0.25549813176517683 0.0 0.8923695646026752 -0.084997124338401 0.0 1.222871768008558 -0.05223955574652505 0.0 1.0814862664444194 -0.0639683578010789 0.0 1.1987963997439965 -0.10443041594885474 0.0 1.2651443950929846 -0.08451347055410124 0.0 1.315323717370963 -0.053668736216396805 0.0 -0.08322669075906342 -0.002493861468835319 0.0 -0.050337340057647624 0.00775263126635994 0.0 0.0008417697541290541 0.010113465099849762 0.0 0.0007138814065194998 0.01207547632530965 0.0 0.14689890498763117 0.026873097152473855 0.0 -0.057137371165122804 0.008240559709876867 0.0 0.06127407285040569 0.021897213033474642 0.0 0.21711924478042813 0.03712566934162793 0.0 0.08494318200422393 0.038194207703121485 0.0 -0.036140667502040966 0.015051461141534063 0.0 1.0348497486392951 0.16079347245997488 0.0 -0.07029200795338322 0.004669911352468599 0.0 1.2551171267562082 -0.10069851869071587 0.0 1.1426571220763833 -0.09836877558488735 0.0 0.9516992686658599 -0.09264050210451158 0.0 1.1048688577456 -0.10227905747862538 0.0 1.2398758505832204 -0.10652780635659496 0.0 0.9143119759323185 -0.09556160327406985 0.0 1.2475135468265197 -0.10676490527681375 0.0 1.0788186609443255 -0.10502283766651006 0.0 1.1339210483200595 -0.10499662217961556 0.0 0.8651224451112722 -0.09496448813792287 0.0 0.9086540452677039 -0.09738322833002463 0.0 0.6278350492712006 -0.07791410458100391 0.0 1.1052571933871158 -0.10751439494246669 0.0 1.2335452032411238 -0.10626235155399069 0.0 1.0698682620305946 -0.10529334626794455 0.0 1.1679077375155693 -0.0858564995943024 0.0 1.193686149275929 -0.10855161812783413 0.0 0.6837291525383168 -0.08191192109383111 0.0 1.1416294643134655 -0.1057074921126272 0.0 0.9404478032772445 -0.098688517419900