<?xml version="1.0"?>
<VTKFile type="UnstructuredGrid"  version="0.1"  >
<UnstructuredGrid>
<Piece  NumberOfPoints="1289" NumberOfCells="2413">
<Points>
<DataArray  type="Float64"  NumberOfComponents="3"  format="ascii">0 0 0  0 0.41 0  2.2 0.41 0  2.2 0 0  0.1 0.1 0  0.1 0.3 0  0.8 0.3 0  0.8 0.1 0  0.25 0.2 0  0.248976 0.210065 0  0.245948 0.219718 0  0.241038 0.228563 0  0.234448 0.23624 0  0.226448 0.242432 0  0.217365 0.246888 0  0.207571 0.249423 0  0.197468 0.249936 0  0.187467 0.248404 0  0.17798 0.24489 0  0.169395 0.239539 0  0.162062 0.232569 0  0.156283 0.224265 0  0.152293 0.214968 0  0.150257 0.205058 0  0.150257 0.194942 0  0.152293 0.185032 0  0.156283 0.175735 0  0.162062 0.167431 0  0.169395 0.160461 0  0.17798 0.15511 0  0.187467 0.151596 0  0.197468 0.150064 0  0.207571 0.150577 0  0.217365 0.153112 0  0.226448 0.157568 0  0.234448 0.16376 0  0.241038 0.171437 0  0.245948 0.180282 0  0.248976 0.189935 0  1.1 0 0  1.1 0.41 0  0.1 0.2 0  0.45 0.1 0  0.45 0.3 0  0.55 0 0  0.275 0.1 0  0.275 0.3 0  0.275 0 0  0.55 0.41 0  0 0.205 0  0.825 0 0  0.825 0.41 0  0.275 0.41 0  0.1 0.15 0  0.1875 0.1 0  0.1 0.25 0  0.1875 0.3 0  0.132322 0.2 0  0.241426 0.253518 0  0.241426 0.146482 0  0.264574 0.17974 0  0.264574 0.22026 0  0.138434 0.187348 0  0.153372 0.150948 0  0.148413 0.164094 0  0.176495 0.136535 0  0.22768 0.143571 0  0.138434 0.212652 0  0.148413 0.235906 0  0.176495 0.263465 0  0.22768 0.256429 0  0.23125 0.3 0  0.24769 0.24094 0  0.23125 0.1 0  0.24769 0.15906 0  0.26253 0.193641 0  0.190482 0.137872 0  0.166753 0.146661 0  0.157737 0.244461 0  0.190482 0.262128 0  0.203107 0.261264 0  0.253635 0.22977 0  0.203107 0.138736 0  0.253635 0.17023 0  0.261028 0.206206 0  0.167707 0.251809 0  0.143629 0.224191 0  0.215302 0.2591 0  0.270465 0.245894 0  0.215302 0.1409 0  0.270465 0.154106 0  0.284052 0.202587 0  0.14375 0.3 0  0.209375 0.3 0  0.225966 0.278501 0  0.209375 0.1 0  0.225966 0.121499 0  0.211613 0.273759 0  0.211613 0.126241 0  0.143629 0.175809 0  0.1 0.175 0  0.133484 0.164832 0  0.144491 0.249539 0  0.1 0.225 0  0.133484 0.235168 0  0.3625 0.3 0  0.25691 0.253381 0  0.25691 0.146619 0  0.277205 0.188698 0  0.184724 0.275712 0  0.237372 0.268285 0  0.184724 0.124288 0  0.237372 0.131715 0  0.197578 0.273149 0  0.193656 0.286994 0  0.197578 0.126851 0  0.193656 0.113006 0  0.122953 0.187671 0  0.118362 0.153758 0  0.155372 0.258107 0  0.122953 0.212329 0  0.118362 0.246242 0  0.276394 0.27264 0  0.276394 0.12736 0  0.280965 0.170013 0  0.253125 0.3 0  0.14375 0.1 0  0.253125 0.1 0  0.269489 0.26014 0  0.269489 0.13986 0  0.303639 0.184297 0  0.165625 0.3 0  0.134742 0.273113 0  0.257831 0.274737 0  0.255279 0.128499 0  0.3625 0.1 0  0.165625 0.1 0  0.162031 0.132368 0  0.134955 0.126405 0  0.149334 0.125568 0  0.142936 0.139597 0  0.12695 0.140259 0  0.242514 0.285501 0  0.242514 0.114499 0  0.1 0.125 0  0.117483 0.12555 0  0.11154 0.139776 0  0.121875 0.1 0  0.109143 0.1125 0  0.126805 0.114 0  0.220313 0.29129 0  0.351562 0.287369 0  0.207222 0.2866 0  0.220312 0.10871 0  0.1375 0 0  0.20625 0 0  0.207222 0.1134 0  0.11722 0.17118 0  0.1 0.1625 0  0.0778409 0.16875 0  0.0862762 0.15625 0  0 0.15375 0  0 0.1025 0  0.11722 0.22882 0  0.1 0.2375 0  0 0.3075 0  0.0862762 0.23125 0  0.0598995 0.222547 0  0.0860223 0.2125 0  0.289584 0.181469 0  0.300267 0.16446 0  0.163832 0.269071 0  0.149597 0.273325 0  0.1 0.275 0  0.268498 0.285953 0  0.31875 0.3 0  0.294154 0.254672 0  0.296875 0.3 0  0.293558 0.271845 0  0.285095 0.286799 0  0.324298 0.264316 0  0.307866 0.263745 0  0.317093 0.234901 0  0.315485 0.281219 0  0.316547 0.250625 0  0.344693 0.243731 0  0.331592 0.251147 0  0.35129 0.270663 0  0.338689 0.263683 0  0.340625 0.3 0  0.249849 0.264383 0  0.265097 0.11422 0  0.284688 0.156136 0  0.242188 0.324017 0  0.0856613 0.2625 0  0.132812 0.0612217 0  0.264062 0.0612217 0  0.198437 0.07598340000000001 0  0.0860223 0.1375 0  0.0794526 0.191089 0  0.285228 0.140397 0  0.298655 0.148737 0  0.31875 0.1 0  0.327335 0.15374 0  0.296875 0.1 0  0.312289 0.155283 0  0.313348 0.135607 0  0.321802 0.173916 0  0.298433 0.134116 0  0.112124 0.2625 0  0.127526 0.259083 0  0.121875 0.3 0  0.0682687 0.241503 0  0.1 0.2875 0  0.117762 0.28125 0  0.107813 0.3 0  0.103906 0.313849 0  0.0778409 0.28125 0  0.1375 0.41 0  0.0862762 0.29375 0  0.08886860000000001 0.24375 0  0.307812 0.338778 0  0.307812 0.292227 0  0.33216 0.279164 0  0.387888 0.266414 0  0.264063 0.31948 0  0.110937 0.07598340000000001 0  0.242188 0.07598340000000001 0  0.319914 0.11839 0  0.340625 0.1 0  0.334448 0.133793 0  0.329687 0.108539 0  0.346259 0.118491 0  0.360334 0.173636 0  0.327539 0.205033 0  0.132812 0.288712 0  0.362436 0.278836 0  0.368105 0.259418 0  0.4125 0.41 0  0.329687 0.324017 0  0.329687 0.292306 0  0.285938 0.318952 0  0.417187 0.338778 0  0.324481 0.14148 0  0.351562 0.106771 0  0.40625 0.1 0  0.341028 0.168342 0  0.319221 0.190479 0  0.335292 0.184501 0  0.305563 0.20794 0  0.220313 0.31948 0  0.132812 0.332772 0  0.0865876 0.311259 0  0.0598995 0.302453 0  0.0906541 0.343255 0  0.353543 0.255837 0  0.36574 0.237633 0  0.405007 0.254279 0  0.275795 0.352123 0  0.4125 0 0  0.35493 0.137394 0  0.366563 0.120618 0  0.35917 0.205246 0  0.198438 0.318952 0  0.0626109 0.263892 0  0.40625 0.3 0  0.354809 0.155936 0  0.386512 0.146872 0  0.373101 0.159939 0  0.384375 0.1 0  0.343394 0.19929 0  0.350682 0.185683 0  0.368101 0.189748 0  0.344016 0.221511 0  0.391108 0.213329 0  0.376279 0.204783 0  0.398843 0.182768 0  0.375804 0.222746 0  0.390665 0.196958 0  0.394004 0.23518 0  0.359883 0.222828 0  0.419908 0.204359 0  0.404243 0.204783 0  0.412615 0.224526 0  0.20625 0.41 0  0.165625 0.325257 0  0.0347982 0.244954 0  0.379558 0.247154 0  0.34165 0.147603 0  0.372264 0.136992 0  0.388988 0.121989 0  0.373437 0.108554 0  0.351562 0.31948 0  0.391367 0.16527 0  0.399572 0.223324 0  0.452011 0.227371 0  0.40877 0.239392 0  0.431491 0.237337 0  0.421224 0.250459 0  0.449619 0.262098 0  0.418865 0.276779 0  0.437063 0.252274 0  0.415673 0.263227 0  0.430988 0.266772 0  0.402767 0.273419 0  0.452967 0.244883 0  0.428125 0.3 0  0.408502 0.286186 0  0.384375 0.3 0  0.392267 0.285807 0  0.465927 0.219339 0  0.43489 0.283846 0  0.376424 0.286289 0  0.625 0.3 0  0.473533 0.205186 0  0.461713 0.255517 0  0.5375 0.3 0  0.465725 0.235405 0  0.44631 0.201425 0  0.471875 0.3 0  0.494307 0.227729 0  0.459448 0.206736 0  0.462294 0.180792 0  0.478933 0.227536 0  0.486793 0.21381 0  0.486322 0.251373 0  0.50065 0.215318 0  0.54005 0.175389 0  0.474633 0.189893 0  0.512916 0.208697 0  0.49531 0.199967 0  0.475889 0.175275 0  0.625 0.1 0  0.459311 0.153933 0  0.513645 0.242704 0  0.392892 0.248539 0  0.374815 0.271913 0  0.365974 0.14871 0  0.395312 0.109184 0  0.417061 0.123981 0  0.483196 0.277003 0  0.381967 0.179632 0  0.429898 0.219374 0  0.433473 0.206165 0  0.43149 0.181038 0  0.444208 0.215487 0  0.472985 0.247309 0  0.49375 0.3 0  0.475579 0.262714 0  0.49916 0.274293 0  0.501175 0.184809 0  0.514164 0.225681 0  0.543648 0.214977 0  0.5341630000000001 0.23481 0  0.527396 0.216171 0  0.5375 0.1 0  0.534548 0.202315 0  0.561545 0.192513 0  0.5494289999999999 0.201221 0  0.570923 0.218346 0  0.412582 0.149833 0  0.489327 0.264745 0  0.502439 0.254775 0  0.462391 0.271166 0  0.496775 0.241732 0  0.5294410000000001 0.268606 0  0.482812 0.291099 0  0.46879 0.285038 0  0.452663 0.284065 0  0.51789 0.257882 0  0.53408 0.252026 0  0.560142 0.243543 0  0.545708 0.243474 0  0.547532 0.229019 0  0.55282 0.265323 0  0.398971 0.153424 0  0.400349 0.135684 0  0.410135 0.168145 0  0.428823 0.161323 0  0.415266 0.183779 0  0.329687 0.0810483 0  0.395312 0.0612217 0  0.373437 0.318952 0  0.439062 0.324017 0  0.561816 0.229354 0  0.585029 0.239287 0  0.431827 0.139854 0  0.446796 0.168929 0  0.351562 0.07598340000000001 0  0.395313 0.318944 0  0.54337 0.150762 0  0.460937 0.31948 0  0.418412 0.137529 0  0.428125 0.1 0  0.442783 0.152332 0  0.450742 0.134294 0  0.373437 0.0805201 0  0.384383 0.342558 0  0.482812 0.318952 0  0.429239 0.127457 0  0.444274 0.117405 0  0.426548 0.113815 0  0.49375 0.1 0  0.488954 0.113984 0  0.457973 0.121842 0  0.471621 0.137346 0  0.515625 0.325257 0  0.48125 0.41 0  0.417187 0.07598340000000001 0  0.496363 0.126778 0  0.479043 0.155715 0  0.439062 0.0805201 0  0.481795 0.126919 0  0.471875 0.1 0  0.489227 0.142159 0  0.515625 0.1 0  0.520062 0.147117 0  0.501244 0.161791 0  0.505431 0.112984 0  0.505344 0.14029 0  0.526563 0.119081 0  0.5181750000000001 0.131908 0  0.539868 0.136937 0  0.460937 0.108383 0  0.474242 0.114415 0  0.460937 0.0810483 0  0.487841 0.167168 0  0.526563 0.0612217 0  0.526563 0.106406 0  0.537619 0.112743 0  0.58125 0.1 0  0.559375 0.1 0  0.482812 0.08105569999999999 0  0.471883 0.0587655 0  0.570312 0.129396 0  0.548437 0.07598340000000001 0  0.504687 0.08105569999999999 0  0.49375 0.0470127 0  0.570312 0.112663 0  0.592798 0.12103 0  0.553986 0.12103 0  0.570312 0.0805201 0  0.48125 0 0  0.114787 0.2 0  0.160769 0.284765 0  0.175816 0.288361 0  0.162602 0.116048 0  0.154687 0.07598340000000001 0  0.176562 0.0805201 0  0.0598995 0.147547 0  0.307812 0.109924 0  0.291279 0.117157 0  0.278491 0.112989 0  0.285937 0.07598340000000001 0  0.307812 0.0805201 0  0.296928 0.196743 0  0.318141 0.218507 0  0.330208 0.227509 0  0.301397 0.225668 0  0.302706 0.241401 0  0.292574 0.21424 0  0.282762 0.230935 0  0.284351 0.244775 0  0.269553 0.23261 0  0.278572 0.217242 0  0.226924 0.342606 0  0.446928 0.185396 0  0.515625 0.3 0  0.504687 0.288879 0  0.515256 0.276534 0  0.529479 0.285328 0  0.58125 0.3 0  0.541969 0.272936 0  0.559375 0.3 0  0.556796 0.282529 0  0.543473 0.287206 0  0.581429 0.267774 0  0.566728 0.271171 0  0.570869 0.255585 0  0.577404 0.283865 0  0.603125 0.3 0  0.597531 0.28035 0  0.570312 0.338778 0  0.592188 0.292492 0  0.603513 0.256094 0  0.614063 0.286265 0  0.610329 0.27064 0  0.632708 0.251285 0  0.657223 0.261594 0  0.618789 0.257807 0  0.614188 0.22987 0  0.630935 0.265614 
[...]
<PointData  Vectors="v"> 
	<DataArray  type="Float64"  Name="v"  NumberOfComponents="3" format="ascii">
0.0 0.0 0.0 0.0 0.0 0.0 0.0 0.0 0.0 0.0 0.0 0.0 0.7962288467435391 -0.1959778091046858 0.0 0.840409536415184 0.20777401064802817 0.0 1.1690406545949603 -0.0600014910035999 0.0 1.1361768955335259 0.055223267479982956 0.0 0.0 0.0 0.0 0.0 0.0 0.0 0.0 0.0 0.0 0.0 0.0 0.0 0.0008438026578908827 0.0007737540349490654 0.0 -0.0003238345674820124 -0.0006967288404693966 0.0 0.0002970319830581093 0.0005268258442154213 0.0 0.0 0.0 0.0 0.0 0.0 0.0 0.0 0.0 0.0 0.0 0.0 0.0 0.0 0.0 0.0 0.0 0.0 0.0 0.0 0.0 0.0 0.0 0.0 0.0 0.0 0.0 0.0 0.0 0.0 0.0 0.0 0.0 0.0 0.0 0.0 0.0 0.0 0.0 0.0 0.0 0.0 0.0 0.0 0.0 0.0 0.0 0.0 0.0 0.0 0.0 0.0 0.0 0.0 0.0 0.0006841619706921291 -0.001188261909757883 0.0 0.0010095245089232368 -0.0016136647889309973 0.0 0.0008563794332775448 -0.0008092404968588832 0.0 0.0 0.0 0.0 0.0 0.0 0.0 0.0 0.0 0.0 0.0 0.0 0.0 0.0 0.0 0.0 0.761328461814558 -0.0012754564787261023 0.0 1.2754309935579873 0.08272185156676282 0.0 1.2663890087754577 -0.0775855738507093 0.0 0.0 0.0 0.0 1.3536322671176437 -0.133015379555223 0.0 1.3581972754766392 0.1548594806550494 0.0 0.0 0.0 0.0 0.0 0.0 0.0 1.0 0.0 0.0 0.0 0.0 0.0 0.0 0.0 0.0 0.0 0.0 0.0 0.8425921059363473 -0.2318798928740682 0.0 1.1513777093792397 -0.34431603457522103 0.0 0.8637831662702279 0.22931377405875011 0.0 1.1663002145069776 0.35411746776222763 0.0 0.42823544634369887 -0.00395725488767752 0.0 0.16461593077313164 0.06228215184524454 0.0 0.17031505122245266 -0.061145853524962816 0.0 -0.027441216527262096 -0.03828918895017731 0.0 -0.02590862292967968 0.0363309044404361 0.0 0.33437576217403103 -0.27982890758876705 0.0 0.8578846239664674 -0.6734476508535943 0.0 0.6399869890981271 -0.6881384257197741 0.0 1.20613195997081 -0.6132836156465756 0.0 0.415100563679092 -0.06939814203297323 0.0 0.33044928891573166 0.2687618122106096 0.0 0.6428368198826755 0.6693383835096162 0.0 1.185153267204918 0.6154008948913016 0.0 0.4083989450854346 0.07124622517214478 0.0 1.3132707085812838 0.26089307506297144 0.0 0.3237160785554003 0.25243224878724246 0.0 1.302608466596315 -0.24055544515491983 0.0 0.31450151434012674 -0.23928964598370292 0.0 -0.033467438872619534 -0.01691733300732492 0.0 1.12489122400707 -0.39874427328431417 0.0 1.0931892847495188 -0.7243289770447956 0.0 0.8520625614188229 0.7707574154069173 0.0 1.1313542763293687 0.3995645364422443 0.0 0.7593396683366315 0.1860400654129278 0.0 0.10879338670415234 0.051517564152819606 0.0 0.7693619758254489 -0.181877698197732 0.0 0.11121704358720375 -0.04984255832303438 0.0 -0.02953603147680856 0.0191069007685524 0.0 1.0275129330627206 0.7188927502385591 0.0 0.4423865230377266 0.5292113864317916 0.0 0.4581505345538549 0.17801585447465426 0.0 0.27136417496951415 0.069084809613409 0.0 0.4639201014283928 -0.17334029671416834 0.0 0.2770767804379361 -0.06465769513456882 0.0 -0.07507488728379545 0.0023729941488197246 0.0 0.9654861938155878 0.3174273534476497 0.0 1.260591663348377 0.31322518331018495 0.0 1.245191385029301 0.28888308602271934 0.0 1.2347987295094844 -0.30764868127783834 0.0 1.2477328687408447 -0.2810265593772038 0.0 1.2201932277232836 0.3310907538500864 0.0 1.2260775567479196 -0.32261184928541037 0.0 0.4428819143007287 -0.5445552012148183 0.0 0.8020149220466188 -0.1396192333797235 0.0 0.671504660897406 -0.419683429177709 0.0 0.8773733180616019 0.5938607782734586 0.0 0.7993065435367804 0.1428154416858325 0.0 0.6764956204734649 0.42016755656080207 0.0 1.2928622597599233 -0.007213957871995791 0.0 0.29317185315072236 0.14449795629388779 0.0 0.29473999562652076 -0.1343603187234662 0.0 -0.05430483470924014 -0.012867063357054712 0.0 1.265075025508097 0.47185371581237723 0.0 0.7687615176110479 0.12080157744150596 0.0 1.2611014034503463 -0.4732669709248529 0.0 0.7889950104240084 -0.11565607308580425 0.0 1.2756120323045488 0.4181174245058644 0.0 1.2540242587809562 0.4011703636472792 0.0 1.2715470677479628 -0.41420649236001783 0.0 1.24466597426781 -0.38109881537009194 0.0 0.5835249879390472 -0.1605116516561114 0.0 0.7964290174513526 -0.3317958490504939 0.0 1.0104385618504301 0.6038201225733442 0.0 0.5917515290314815 0.15062482725155507 0.0 0.8125640086138826 0.3317190091750203 0.0 0.7458522124956133 0.08086247274123103 0.0 0.782598002266433 -0.07302262359433292 0.0 0.05225259606079147 -0.02204036610349998 0.0 1.3635031543617135 0.20747012951447566 0.0 0.9298117049593182 -0.32221338175500985 0.0 1.344525831127254 -0.19005800799546982 0.0 0.4092040118669467 0.09092201679307302 0.0 0.4271207177059597 -0.07823529681650439 0.0 -0.054547501599405114 -0.008049171409218915 0.0 1.0573729467293915 0.35402632251602284 0.0 0.9431649310071372 0.3914919518755651 0.0 0.9222833798000027 0.11234121405396305 0.0 0.8241500719958802 -0.08696488478558378 0.0 1.3067429014837437 0.016662688937741265 0.0 1.0274932870260751 -0.3451793564137242 0.0 1.0744750828663447 -0.5703093995172694 0.0 0.9301226690049794 -0.38938059575360573 0.0 0.9974535179215847 -0.4386346365982571 0.0 0.9329187682013389 -0.5428121399661489 0.0 0.8655234844720432 -0.40648502506405304 0.0 1.273353394820906 0.23289827421752307 0.0 1.2715417096266515 -0.21962285890872466 0.0 0.852651256729079 -0.23562161991112074 0.0 0.8790429169033654 -0.3099410073753735 0.0 0.8528895760965367 -0.29903334708521767 0.0 0.8514010297900255 -0.25639047920285285 0.0 0.8542054821159688 -0.25276996072597635 0.0 0.8962647186385249 -0.31945380000860596 0.0 1.3292896182859484 0.31564158972083073 0.0 1.0847038646009928 -0.002415207493123031 0.0 1.3146280267054924 0.36240584017303035 0.0 1.3212804593875538 -0.2960494011436994 0.0 0.0 0.0 0.0 0.0 0.0 0.0 1.29939011616152 -0.3494505650164495 0.0 0.7142396456661835 -0.2673011584897526 0.0 0.8203880416297845 -0.2107529371960985 0.0 0.8711697652796309 -0.11074678629555135 0.0 0.8624385787536674 -0.16375830604492267 0.0 0.9375 0.0 0.0 0.7500000000000001 0.0 0.0 0.7224765400061933 0.2653232879960414 0.0 0.8240400477438675 0.20015961557657336 0.0 0.7499999999999999 0.0 0.0 0.8697184893951526 0.12783553387652052 0.0 0.9287131059114927 0.04284281823966738 0.0 0.8481118627571953 0.045080367987497705 0.0 -0.034852160087428294 -0.011514170390249854 0.0 0.09143431337211337 -0.01750626185037647 0.0 1.1150256379780905 0.5548052247060529 0.0 1.0190230433024776 0.47317095131121617 0.0 0.8809758773585721 0.24548867691196186 0.0 1.2001003379458066 0.1390669054839227 0.0 1.3289101767374845 0.05983537574854514 0.0 0.3520460602604826 0.03804726920085622 0.0 1.3561935717964158 0.1029047000193457 0.0 0.7139986676821659 0.053794196197757604 0.0 1.1712010832083104 0.10025134868294695 0.0 0.5146810637606638 0.015894804401435782 0.0 0.49625955047303694 0.030085879071431336 0.0 0.0698452580668752 0.013502822131884801 0.0 0.9567262601314324 0.03455965198062246 0.0 0.2571681348183635 0.02223367324260183 0.0 0.16339257194263243 0.008612346875739208 0.0 0.26774350560506494 0.014702149373065139 0.0 0.6667840897065351 -0.004768825015541811 0.0 0.49845079647224194 0.00706681925701326 0.0 1.3158428063136987 0.01931152012523258 0.0 0.5424496343840257 0.06210685765863421 0.0 1.230152121299559 -0.1420269249055433 0.0 0.20203082208477963 -0.037556552312549354 0.0 1.2058287667361842 0.1735749773080196 0.0 0.8828264121833134 0.17975542988154086 0.0 0.701112340058794 -0.16794728672428938 0.0 1.1155455217765002 -0.09423134690568737 0.0 1.0385187920895056 -0.2237489488172524 0.0 0.8637478907926599 -0.18264270294392385 0.0 0.875418871254165 -0.025583632555454046 0.0 0.43943522059718265 -0.04808199184271663 0.0 0.2904582042514828 -0.03302631085975922 0.0 1.3289399076089008 -0.04186889594908059 0.0 0.20843172264780752 -0.013399220682386697 0.0 1.355410553794762 -0.08634754317692839 0.0 0.19144787278002295 -0.018999335425523674 0.0 0.5355580336891772 -0.01565038348634203 0.0 -0.0016118521436938478 -0.011133100225251071 0.0 0.5722103187142651 -0.03143838944318605 0.0 0.878896654683121 0.29717574128994456 0.0 0.8795672101779385 0.4107952224429231 0.0 0.8851009259904671 0.27035319633404614 0.0 0.9122205681233704 0.10985997401035273 0.0 0.8651833009201598 0.22331052317905872 0.0 0.9047341902780479 0.30373943884228594 0.0 0.8572432049201512 0.23353705645752554 0.0 0.802032060390959 0.18339447234044712 0.0 0.8670577765336648 0.16154200919594103 0.0 0.0 0.0 0.0 0.8415218884413489 0.17670671512282915 0.0 0.870658189804318 0.1710399880171894 0.0 1.2131556440002937 0.04975418112752369 0.0 1.2376537277426976 0.06498711397486548 0.0 0.8903426232600836 0.013261747760780507 0.0 0.5942786546606492 -0.025951257410476068 0.0 1.2798962343067388 0.14709082246004454 0.0 0.7176108470172007 -0.17371632455613792 0.0 1.1779718553064493 -0.16454663014545826 0.0 0.998587652959716 -0.019776172299307046 0.0 1.3235249805608358 -0.007698313260704296 0.0 0.5854367713319661 -6.798259445583846e-05 0.0 1.2204048187521652 -0.012576745400600917 0.0 0.9834119109262984 0.009266446130087307 0.0 -0.004638822093658679 -0.006912765438898428 0.0 -0.09617480470910263 0.0012090216336034334 0.0 0.9448665548794419 0.3412493882651733 0.0 0.8779628229755393 -0.018405808829920427 0.0 0.4276575230066219 -0.008112131302699457 0.0 0.0 0.0 0.0 1.3287011950475638 0.03748495217513586 0.0 1.2127022012096826 0.024968362500514325 0.0 1.3172805242258876 0.1146009192276596 0.0 1.2524119354068164 -0.04442502698671976 0.0 0.4134976647040961 -0.013734627141359939 0.0 1.2282564764797128 0.010539218230004116 0.0 1.2910465398052524 0.056832246128891706 0.0 0.040942193231552945 -0.009723788280646213 0.0 -0.08253428918037627 -0.0050906435375783435 0.0 -0.06772234426472074 -0.007403080485953728 0.0 -0.08118709201710715 0.0030634516614872877 0.0 1.1858374885114538 0.21972679445918317 0.0 0.7774568305145758 0.19848698302089468 0.0 0.7779171322657649 0.15423878186290074 0.0 0.7857386606923077 0.10691143429011934 0.0 0.6205772006489083 0.11098619106036432 0.0 0.35306820449130416 0.001516908515259489 0.0 0.09334397726589093 0.0039562679148519575 0.0 0.36494576777617616 -0.020616899403096703 0.0 1.07199661773093 0.07673072532171102 0.0 0.0 0.0 0.0 0.5197607191220278 0.011479810450996056 0.0 0.9317785260731657 0.02925552513118399 0.0 -0.10943917674978083 0.0006655301357409638 0.0 1.0970332996054546 0.26704433580040876 0.0 0.9003348500731351 0.11240210935527177 0.0 1.2804929886612817 -0.04963494545198316 0.0 0.18659996982868174 -0.0035748107813949677 0.0 0.3586002830201592 0.017887360779284614 0.0 0.14289689790736446 0.00024891937730968226 0.0 1.3028513106724613 0.03925631852347205 0.0 -0.10616657433852149 -0.001513360475984842 0.0 -0.07760037199115803 -0.006446740421994297 0.0 -0.09785470237212181 -0.0044749673740279 0.0 -0.04357403967532675 0.007077645712577055 0.0 -0.09559587843407846 0.0010904495710218874 0.0 -0.11592352068753418 0.00010939636672174536 0.0 -0.06697978924999917 -0.001994085498867835 0.0 -0.04142118043251133 0.0035030900871905225 0.0 -0.11977167660584484 -0.0019892913836949003 0.0 0.07525398142398787 -0.0019783440281610325 0.0 -0.03886093512554379 0.005742492724328329 0.0 -0.12315302871500541 -0.0011660591512870195 0.0 -0.12182827140220995 -0.0007323436843460748 0.0 -0.023814919903079445 -0.0024616199069642628 0.0 0.0 0.0 0.0 0.9464305854507437 0.25547139773260424 0.0 0.9513524029365303 0.04010533117374384 0.0 0.22485613359200565 -0.004365208760589665 0.0 0.3085244390703361 -0.004432059492870139 0.0 0.5441559672634011 0.02100678459940617 0.0 0.9121432201842182 0.0430293408993799 0.0 1.1919561611388554 0.03458325662030445 0.0 1.3537602625865472 0.01462147980194963 0.0 0.087854493390923 0.0022983603911589327 0.0 -0.0359631587087693 0.00010251299786915018 0.0 0.022568875986908123 -0.01189481549330208 0.0 0.13537024663423206 -0.008782609646713383 0.0 0.12552236179625265 -0.013955103684280558 0.0 0.31550373396660253 -0.023393259817514285 0.0 0.575328990075095 -0.05120889092424328 0.0 0.8596560690478802 -0.052615987630700384 0.0 0.3667791202098869 -0.03197414861221345 0.0 0.5553153865698918 -0.03598379457360741 0.0 0.6506448930672686 -0.04798488778005383 0.0 0.7703079674576511 -0.0411907630793771 0.0 0.2590890039568135 -0.028524629015363456 0.0 1.2729688575184157 -0.06481134672677982 0.0 1.058735299390688 -0.05199346691886047 0.0 1.286669662540671 -0.02918237932837437 0.0 1.0491848873762364 -0.039832283774792525 0.0 -0.0429613936557627 -0.009122252258795437 0.0 1.027323626464509 -0.06724867115696952 0.0 1.0602942127295463 -0.030155658599604927 0.0 1.2262353694106904 -0.10289421276259995 0.0 -0.10896440361185525 -0.002549147778862441 0.0 0.4604150092214388 -0.04599365413918931 0.0 1.251072325528454 -0.10553799837945955 0.0 0.13145351523260276 -0.022084254621320302 0.0 -0.12217181955084723 -0.0010196885518477434 0.0 1.2615934657806576 -0.08759352614948379 0.0 0.06293625964983413 -0.021517243336815685 0.0 -0.11165408170487813 -0.0027908951126271665 0.0 -0.026550077101378532 0.009739774736579086 0.0 0.04547318032207872 -0.01808276328221296 0.0 -0.06790024148699124 -0.00842658116213121 0.0 0.4184652153766908 -0.04936937499537423 0.0 -0.04789244529968518 -0.011225742869723266 0.0 0.11218516543266584 0.029632791554625188 0.0 -0.0826205838984109 0.005352446326703113 0.0 -0.07311144798065236 -0.00684953616075962 0.0 -0.09973775633321419 0.00018930939721823275 0.0 0.03912874163455699 0.016832071683856524 0.0 1.2161834016739803 0.103113533712002 0.0 0.32715174576892264 0.0371838433944224 0.0 0.3041832037580705 -0.0452186665660641 0.0 0.2557522899760711 -0.010187482039529393 0.0 0.7082068827378472 -0.020644974356269892 0.0 0.3059769807631062 0.005682037162170614 0.0 1.1764697941506455 0.052956373173651206 0.0 0.8886105755733253 0.060939769591766675 0.0 0.9292873914276879 -0.08309027529675263 0.0 -0.04795211821794999 -0.004100713799976664 0.0 -0.05892861172488693 -0.0038161774655444524 0.0 -0.11918075323551164 -0.00162413991150816 0.0 -0.045954138640999516 0.003980398916327847 0.0 -0.07969193428845964 -0.004405417532888527 0.0 0.3257855986360495 -0.03892057045380587 0.0 1.2581991661182026 -0.09369088380200347 0.0 0.6261546002780206 -0.061972184335612995 0.0 0.8936480032104113 -0.08617336421456193 0.0 -0.029178340272220292 0.012339940474786423 0.0 0.06044540206939511 -0.023443642014675407 0.0 -0.008044657961656007 -0.015521147700221033 0.0 0.20775737022315394 -0.039132838627051934 0.0 -0.016892101187683424 -0.015128466046962675 0.0 1.2533638452872178 0.10604906255543144 0.0 -0.06718001236116325 -0.0016413937546418838 0.0 -0.015073393239075517 0.010208234173885866 0.0 -0.05183045171273941 -0.0004794969695701671 0.0 0.05372036741889279 -0.022124663874843686 0.0 0.3368445725031593 0.024625101509875392 0.0 0.6880299488463614 -0.07042687381318424 0.0 0.5071289071640389 -0.06020445425399918 0.0 0.7870509598948977 -0.068601558191111 0.0 0.26432220786723987 -0.038824111291188464 0.0 0.8188930424035907 -0.08789222124311308 0.0 1.16649049211042 -0.09127298509885669 0.0 1.0676234380048362 -0.08389512825581012 0.0 1.04090589683004 -0.0753779392180961 0.0 0.5917408520447949 -0.06983878348870223 0.0 0.5030313957046758 -0.06486681238844795 0.0 0.3899280437290799 -0.05769545085529631 0.0 0.3654689621242881 -0.05445999104243173 0.0 0.1435057077134496 -0.03351739818157446 0.0 0.7862076326104492 -0.08842443428306591 0.0 0.25928399912370287 0.014765277676772966 0.0 0.6064463649098952 0.03786606399759624 0.0 0.06663037136279755 0.0060161754959231414 0.0 0.1711004716913737 0.017725937870815424 0.0 -0.07060618894037825 0.0002622853408083847 0.0 1.3327036973720259 -0.02440824860371038 0.0 1.217891680273821 0.041098872093690314 0.0 1.355222379361204 -0.012108120566422133 0.0 1.3267004151961255 -0.06329334257599598 0.0 0.16819533197306663 -0.03632932294367891 0.0 0.3558847991950577 -0.05481216458522447 0.0 0.5582276317661612 0.046695175305288376 0.0 0.08676951327605921 0.015360829400399326 0.0 1.3081897843533252 0.004069642707874391 0.0 1.3482901956346471 -0.03303982280429966 0.0 0.5172406271738823 0.06806717251338802 0.0 1.3270889504823822 -0.07679141589341332 0.0 0.5881865152660191 0.043242899957601034 0.0 1.2822631254283736 0.0718305385664213 0.0 0.332222587218374 0.033441604827124514 0.0 0.703530016813521 0.06358853725104648 0.0 1.334665267960174 0.024135687496363526 0.0 1.2312622910914564 -0.024243892565156095 0.0 1.3177185983309212 -0.08679978099729627 0.0 0.8244713802983469 0.06127542571664669 0.0 1.0473649717519815 0.0787986533874368 0.0 1.1066353226755357 0.07224590059065239 0.0 1.2666587703184617 0.09834890840896814 0.0 1.1281666670530996 0.09705181671079377 0.0 0.974332332695452 0.08105613575101925 0.0 0.6681511891144359 0.06704021423284608 0.0 1.273262392164379 -0.08999171574615 0.0 0.0 0.0 0.0 1.307910940427915 0.05774151118124113 0.0 0.9163699142870559 0.08924994810203145 0.0 0.3247884351233362 0.04158818797775883 0.0 1.3158435284897052 0.07151042683495071 0.0 0.8987823978177668 0.08504851402495121 0.0 1.2705138386070862 0.091110380023001 0.0 0.5975096609716942 0.06585941527430322 0.0 1.2617883098254463 0.10348334384623237 0.0 0.5486130654033623 0.06767353126980473 0.0 0.25540808802992215 0.03971911528937088 0.0 1.1462736857620313 0.10135286597538949 0.0 0.6607766916154042 0.07433782762291945 0.0 1.0720068530192879 0.10315429965764186 0.0 0.8440085197215271 0.09015985564386574 0.0 0.7751745392991789 0.08833837430557225 0.0 1.195295261783907 0.08851164860153952 0.0 1.1156647308872556 0.0916319706412947 0.0 1.3061924681839223 0.0817610951701211 0.0 0.15531944317294563 0.028376185690574176 0.0 1.1522794462577755 0.07908712825006235 0.0 1.2162546718130727 0.10636936226021028 0.0 1.15705726188768 0.10734365155525773 0.0 1.2336163903469277 0.10730442812528677 0.0 1.2436523031460556 0.10826174702885659 0.0 1.2911957862266268 0.08694993751633903 0.0 1.1832524267369722 0.06837431800986506 0.0 0.9446784648587503 0.10125233793835411 0.0 1.2293373682665474 0.09257297030839211 0.0 1.279053023936063 0.09059444434396766 0.0 1.0452494421749234 0.06522916097330453 0.0 1.1622063064635877 0.10956495503708263 0.0 1.0790759782160697 0.1081218773123905 0.0 1.0593465276657055 0.1059918753848347 0.0 1.2324453840817355 0.09695857508690019 0.0 0.0 0.0 0.0 0.6445057743427476 -0.005575028088693071 0.0 1.077842221401389 0.43426165805625255 0.0 1.1669129326969 0.4222749637995913 0.0 1.0822417963452415 -0.4267646714903141 0.0 0.865594197840513 -0.22701467849144727 0.0 0.9788761541949595 -0.2555053874518638 0.0 0.892367950468006 -0.08498809758853665 0.0 1.2228378196752867 -0.05225988273506231 0.0 1.0814439821814048 -0.063985482094509 0.0 1.1987523013019532 -0.10445050352500926 0.0 1.2651666909502404 -0.08453653255590735 0.0 1.315348160363322 -0.053688238489663705 0.0 -0.08318731140308015 -0.0024802124653907653 0.0 -0.05033564760939681 0.007765507863681503 0.0 0.0008160847408935409 0.010115210321130027 0.0 0.0006971432064534547 0.01211146492913487 0.0 0.14679494135308632 0.02688682680060598 0.0 -0.05710107739045753 0.008273012663509813 0.0 0.061215692037290124 0.021945849735662062 0.0 0.21691304657778057 0.037144065337531396 0.0 0.08486165906724026 0.03820769687623177 0.0 -0.0360957788094559 0.01508774431636921 0.0 1.0348509377161772 0.1607801173310445 0.0 -0.07030679309752873 0.004447266589580641 0.0 1.2548940811029108 -0.10066455651419409 0.0 1.1424183445466647 -0.09838969820533852 0.0 0.9513752134693999 -0.09268514204454968 0.0 1.1045263046264107 -0.10225319186011127 0.0 1.2396064314207187 -0.10629624980693596 0.0 0.9138382018761149 -0.09554495274219692 0.0 1.2472292968150422 -0.1066023992176112 0.0 1.078362600350217 -0.10489861399742983 0.0 1.133545745177988 -0.1049118666184263 0.0 0.8644218747666825 -0.09475407195035378 0.0 0.9080533560179526 -0.09724749590116137 0.0 0.6270888055315572 -0.07783887919377623 0.0 1.104771012861541 -0.10729538176102973 0.0 1.233318207518091 -0.10596544470934058 0.0 1.0693201239301173 -0.10497752206609823 0.0 1.16789170752416 -0.08572043873178795 0.0 1.1933265694994202 -0.10826214431077467 0.0 0.6828431972290474 -0.08158058035165257 0.0 1.1412213294782292 -0.10533224225762838 0.0 0.9397442890632526 -0.09829669637001047 0