<?xml version="1.0"?>
<VTKFile type="UnstructuredGrid"  version="0.1"  >
<UnstructuredGrid>
<Piece  NumberOfPoints="1289" NumberOfCells="2413">
<Points>
<DataArray  type="Float64"  NumberOfComponents="3"  format="ascii">0 0 0  0 0.41 0  2.2 0.41 0  2.2 0 0  0.1 0.1 0  0.1 0.3 0  0.8 0.3 0  0.8 0.1 0  0.25 0.2 0  0.248976 0.210065 0  0.245948 0.219718 0  0.241038 0.228563 0  0.234448 0.23624 0  0.226448 0.242432 0  0.217365 0.246888 0  0.207571 0.249423 0  0.197468 0.249936 0  0.187467 0.248404 0  0.17798 0.24489 0  0.169395 0.239539 0  0.162062 0.232569 0  0.156283 0.224265 0  0.152293 0.214968 0  0.150257 0.205058 0  0.150257 0.194942 0  0.152293 0.185032 0  0.156283 0.175735 0  0.162062 0.167431 0  0.169395 0.160461 0  0.17798 0.15511 0  0.187467 0.151596 0  0.197468 0.150064 0  0.207571 0.150577 0  0.217365 0.153112 0  0.226448 0.157568 0  0.234448 0.16376 0  0.241038 0.171437 0  0.245948 0.180282 0  0.248976 0.189935 0  1.1 0 0  1.1 0.41 0  0.1 0.2 0  0.45 0.1 0  0.45 0.3 0  0.55 0 0  0.275 0.1 0  0.275 0.3 0  0.275 0 0  0.55 0.41 0  0 0.205 0  0.825 0 0  0.825 0.41 0  0.275 0.41 0  0.1 0.15 0  0.1875 0.1 0  0.1 0.25 0  0.1875 0.3 0  0.132322 0.2 0  0.241426 0.253518 0  0.241426 0.146482 0  0.264574 0.17974 0  0.264574 0.22026 0  0.138434 0.187348 0  0.153372 0.150948 0  0.148413 0.164094 0  0.176495 0.136535 0  0.22768 0.143571 0  0.138434 0.212652 0  0.148413 0.235906 0  0.176495 0.263465 0  0.22768 0.256429 0  0.23125 0.3 0  0.24769 0.24094 0  0.23125 0.1 0  0.24769 0.15906 0  0.26253 0.193641 0  0.190482 0.137872 0  0.166753 0.146661 0  0.157737 0.244461 0  0.190482 0.262128 0  0.203107 0.261264 0  0.253635 0.22977 0  0.203107 0.138736 0  0.253635 0.17023 0  0.261028 0.206206 0  0.167707 0.251809 0  0.143629 0.224191 0  0.215302 0.2591 0  0.270465 0.245894 0  0.215302 0.1409 0  0.270465 0.154106 0  0.284052 0.202587 0  0.14375 0.3 0  0.209375 0.3 0  0.225966 0.278501 0  0.209375 0.1 0  0.225966 0.121499 0  0.211613 0.273759 0  0.211613 0.126241 0  0.143629 0.175809 0  0.1 0.175 0  0.133484 0.164832 0  0.144491 0.249539 0  0.1 0.225 0  0.133484 0.235168 0  0.3625 0.3 0  0.25691 0.253381 0  0.25691 0.146619 0  0.277205 0.188698 0  0.184724 0.275712 0  0.237372 0.268285 0  0.184724 0.124288 0  0.237372 0.131715 0  0.197578 0.273149 0  0.193656 0.286994 0  0.197578 0.126851 0  0.193656 0.113006 0  0.122953 0.187671 0  0.118362 0.153758 0  0.155372 0.258107 0  0.122953 0.212329 0  0.118362 0.246242 0  0.276394 0.27264 0  0.276394 0.12736 0  0.280965 0.170013 0  0.253125 0.3 0  0.14375 0.1 0  0.253125 0.1 0  0.269489 0.26014 0  0.269489 0.13986 0  0.303639 0.184297 0  0.165625 0.3 0  0.134742 0.273113 0  0.257831 0.274737 0  0.255279 0.128499 0  0.3625 0.1 0  0.165625 0.1 0  0.162031 0.132368 0  0.134955 0.126405 0  0.149334 0.125568 0  0.142936 0.139597 0  0.12695 0.140259 0  0.242514 0.285501 0  0.242514 0.114499 0  0.1 0.125 0  0.117483 0.12555 0  0.11154 0.139776 0  0.121875 0.1 0  0.109143 0.1125 0  0.126805 0.114 0  0.220313 0.29129 0  0.351562 0.287369 0  0.207222 0.2866 0  0.220312 0.10871 0  0.1375 0 0  0.20625 0 0  0.207222 0.1134 0  0.11722 0.17118 0  0.1 0.1625 0  0.0778409 0.16875 0  0.0862762 0.15625 0  0 0.15375 0  0 0.1025 0  0.11722 0.22882 0  0.1 0.2375 0  0 0.3075 0  0.0862762 0.23125 0  0.0598995 0.222547 0  0.0860223 0.2125 0  0.289584 0.181469 0  0.300267 0.16446 0  0.163832 0.269071 0  0.149597 0.273325 0  0.1 0.275 0  0.268498 0.285953 0  0.31875 0.3 0  0.294154 0.254672 0  0.296875 0.3 0  0.293558 0.271845 0  0.285095 0.286799 0  0.324298 0.264316 0  0.307866 0.263745 0  0.317093 0.234901 0  0.315485 0.281219 0  0.316547 0.250625 0  0.344693 0.243731 0  0.331592 0.251147 0  0.35129 0.270663 0  0.338689 0.263683 0  0.340625 0.3 0  0.249849 0.264383 0  0.265097 0.11422 0  0.284688 0.156136 0  0.242188 0.324017 0  0.0856613 0.2625 0  0.132812 0.0612217 0  0.264062 0.0612217 0  0.198437 0.07598340000000001 0  0.0860223 0.1375 0  0.0794526 0.191089 0  0.285228 0.140397 0  0.298655 0.148737 0  0.31875 0.1 0  0.327335 0.15374 0  0.296875 0.1 0  0.312289 0.155283 0  0.313348 0.135607 0  0.321802 0.173916 0  0.298433 0.134116 0  0.112124 0.2625 0  0.127526 0.259083 0  0.121875 0.3 0  0.0682687 0.241503 0  0.1 0.2875 0  0.117762 0.28125 0  0.107813 0.3 0  0.103906 0.313849 0  0.0778409 0.28125 0  0.1375 0.41 0  0.0862762 0.29375 0  0.08886860000000001 0.24375 0  0.307812 0.338778 0  0.307812 0.292227 0  0.33216 0.279164 0  0.387888 0.266414 0  0.264063 0.31948 0  0.110937 0.07598340000000001 0  0.242188 0.07598340000000001 0  0.319914 0.11839 0  0.340625 0.1 0  0.334448 0.133793 0  0.329687 0.108539 0  0.346259 0.118491 0  0.360334 0.173636 0  0.327539 0.205033 0  0.132812 0.288712 0  0.362436 0.278836 0  0.368105 0.259418 0  0.4125 0.41 0  0.329687 0.324017 0  0.329687 0.292306 0  0.285938 0.318952 0  0.417187 0.338778 0  0.324481 0.14148 0  0.351562 0.106771 0  0.40625 0.1 0  0.341028 0.168342 0  0.319221 0.190479 0  0.335292 0.184501 0  0.305563 0.20794 0  0.220313 0.31948 0  0.132812 0.332772 0  0.0865876 0.311259 0  0.0598995 0.302453 0  0.0906541 0.343255 0  0.353543 0.255837 0  0.36574 0.237633 0  0.405007 0.254279 0  0.275795 0.352123 0  0.4125 0 0  0.35493 0.137394 0  0.366563 0.120618 0  0.35917 0.205246 0  0.198438 0.318952 0  0.0626109 0.263892 0  0.40625 0.3 0  0.354809 0.155936 0  0.386512 0.146872 0  0.373101 0.159939 0  0.384375 0.1 0  0.343394 0.19929 0  0.350682 0.185683 0  0.368101 0.189748 0  0.344016 0.221511 0  0.391108 0.213329 0  0.376279 0.204783 0  0.398843 0.182768 0  0.375804 0.222746 0  0.390665 0.196958 0  0.394004 0.23518 0  0.359883 0.222828 0  0.419908 0.204359 0  0.404243 0.204783 0  0.412615 0.224526 0  0.20625 0.41 0  0.165625 0.325257 0  0.0347982 0.244954 0  0.379558 0.247154 0  0.34165 0.147603 0  0.372264 0.136992 0  0.388988 0.121989 0  0.373437 0.108554 0  0.351562 0.31948 0  0.391367 0.16527 0  0.399572 0.223324 0  0.452011 0.227371 0  0.40877 0.239392 0  0.431491 0.237337 0  0.421224 0.250459 0  0.449619 0.262098 0  0.418865 0.276779 0  0.437063 0.252274 0  0.415673 0.263227 0  0.430988 0.266772 0  0.402767 0.273419 0  0.452967 0.244883 0  0.428125 0.3 0  0.408502 0.286186 0  0.384375 0.3 0  0.392267 0.285807 0  0.465927 0.219339 0  0.43489 0.283846 0  0.376424 0.286289 0  0.625 0.3 0  0.473533 0.205186 0  0.461713 0.255517 0  0.5375 0.3 0  0.465725 0.235405 0  0.44631 0.201425 0  0.471875 0.3 0  0.494307 0.227729 0  0.459448 0.206736 0  0.462294 0.180792 0  0.478933 0.227536 0  0.486793 0.21381 0  0.486322 0.251373 0  0.50065 0.215318 0  0.54005 0.175389 0  0.474633 0.189893 0  0.512916 0.208697 0  0.49531 0.199967 0  0.475889 0.175275 0  0.625 0.1 0  0.459311 0.153933 0  0.513645 0.242704 0  0.392892 0.248539 0  0.374815 0.271913 0  0.365974 0.14871 0  0.395312 0.109184 0  0.417061 0.123981 0  0.483196 0.277003 0  0.381967 0.179632 0  0.429898 0.219374 0  0.433473 0.206165 0  0.43149 0.181038 0  0.444208 0.215487 0  0.472985 0.247309 0  0.49375 0.3 0  0.475579 0.262714 0  0.49916 0.274293 0  0.501175 0.184809 0  0.514164 0.225681 0  0.543648 0.214977 0  0.5341630000000001 0.23481 0  0.527396 0.216171 0  0.5375 0.1 0  0.534548 0.202315 0  0.561545 0.192513 0  0.5494289999999999 0.201221 0  0.570923 0.218346 0  0.412582 0.149833 0  0.489327 0.264745 0  0.502439 0.254775 0  0.462391 0.271166 0  0.496775 0.241732 0  0.5294410000000001 0.268606 0  0.482812 0.291099 0  0.46879 0.285038 0  0.452663 0.284065 0  0.51789 0.257882 0  0.53408 0.252026 0  0.560142 0.243543 0  0.545708 0.243474 0  0.547532 0.229019 0  0.55282 0.265323 0  0.398971 0.153424 0  0.400349 0.135684 0  0.410135 0.168145 0  0.428823 0.161323 0  0.415266 0.183779 0  0.329687 0.0810483 0  0.395312 0.0612217 0  0.373437 0.318952 0  0.439062 0.324017 0  0.561816 0.229354 0  0.585029 0.239287 0  0.431827 0.139854 0  0.446796 0.168929 0  0.351562 0.07598340000000001 0  0.395313 0.318944 0  0.54337 0.150762 0  0.460937 0.31948 0  0.418412 0.137529 0  0.428125 0.1 0  0.442783 0.152332 0  0.450742 0.134294 0  0.373437 0.0805201 0  0.384383 0.342558 0  0.482812 0.318952 0  0.429239 0.127457 0  0.444274 0.117405 0  0.426548 0.113815 0  0.49375 0.1 0  0.488954 0.113984 0  0.457973 0.121842 0  0.471621 0.137346 0  0.515625 0.325257 0  0.48125 0.41 0  0.417187 0.07598340000000001 0  0.496363 0.126778 0  0.479043 0.155715 0  0.439062 0.0805201 0  0.481795 0.126919 0  0.471875 0.1 0  0.489227 0.142159 0  0.515625 0.1 0  0.520062 0.147117 0  0.501244 0.161791 0  0.505431 0.112984 0  0.505344 0.14029 0  0.526563 0.119081 0  0.5181750000000001 0.131908 0  0.539868 0.136937 0  0.460937 0.108383 0  0.474242 0.114415 0  0.460937 0.0810483 0  0.487841 0.167168 0  0.526563 0.0612217 0  0.526563 0.106406 0  0.537619 0.112743 0  0.58125 0.1 0  0.559375 0.1 0  0.482812 0.08105569999999999 0  0.471883 0.0587655 0  0.570312 0.129396 0  0.548437 0.07598340000000001 0  0.504687 0.08105569999999999 0  0.49375 0.0470127 0  0.570312 0.112663 0  0.592798 0.12103 0  0.553986 0.12103 0  0.570312 0.0805201 0  0.48125 0 0  0.114787 0.2 0  0.160769 0.284765 0  0.175816 0.288361 0  0.162602 0.116048 0  0.154687 0.07598340000000001 0  0.176562 0.0805201 0  0.0598995 0.147547 0  0.307812 0.109924 0  0.291279 0.117157 0  0.278491 0.112989 0  0.285937 0.07598340000000001 0  0.307812 0.0805201 0  0.296928 0.196743 0  0.318141 0.218507 0  0.330208 0.227509 0  0.301397 0.225668 0  0.302706 0.241401 0  0.292574 0.21424 0  0.282762 0.230935 0  0.284351 0.244775 0  0.269553 0.23261 0  0.278572 0.217242 0  0.226924 0.342606 0  0.446928 0.185396 0  0.515625 0.3 0  0.504687 0.288879 0  0.515256 0.276534 0  0.529479 0.285328 0  0.58125 0.3 0  0.541969 0.272936 0  0.559375 0.3 0  0.556796 0.282529 0  0.543473 0.287206 0  0.581429 0.267774 0  0.566728 0.271171 0  0.570869 0.255585 0  0.577404 0.283865 0  0.603125 0.3 0  0.597531 0.28035 0  0.570312 0.338778 0  0.592188 0.292492 0  0.603513 0.256094 0  0.614063 0.286265 0  0.610329 0.27064 0  0.632708 0.251285 0  0.657223 0.261594 0  0.618789 0.257807 0  0.614188 0.22987 0  0.630935 0.265614 
[...]
<PointData  Vectors="v"> 
	<DataArray  type="Float64"  Name="v"  NumberOfComponents="3" format="ascii">
0.0 0.0 0.0 0.0 0.0 0.0 0.0 0.0 0.0 0.0 0.0 0.0 0.7962354181372515 -0.19599266700045032 0.0 0.840403054680741 0.2077566922815077 0.0 1.1685511843493654 -0.05995899073339255 0.0 1.1368011296074 0.05544046259008368 0.0 0.0 0.0 0.0 0.0 0.0 0.0 0.0 0.0 0.0 0.0 0.0 0.0 0.0008738713748987147 0.000826797629593746 0.0 0.0009790353569218782 0.0015601082435840446 0.0 0.0006747629521412035 0.0011807176308969067 0.0 0.0 0.0 0.0 0.0 0.0 0.0 0.0 0.0 0.0 0.0 0.0 0.0 0.0 0.0 0.0 0.0 0.0 0.0 0.0 0.0 0.0 0.0 0.0 0.0 0.0 0.0 0.0 0.0 0.0 0.0 0.0 0.0 0.0 0.0 0.0 0.0 0.0 0.0 0.0 0.0 0.0 0.0 0.0 0.0 0.0 0.0 0.0 0.0 0.0 0.0 0.0 0.0 0.0 0.0 0.000275259246473478 -0.000480344647030559 0.0 -0.0004008499043153862 0.0008294333689336406 0.0 0.0008242019593438023 -0.0007521046563087254 0.0 0.0 0.0 0.0 0.0 0.0 0.0 0.0 0.0 0.0 0.0 0.0 0.0 0.0 0.0 0.0 0.7613286866272896 -0.0013028236048026318 0.0 1.2757244933802487 0.08303357589770835 0.0 1.2660735588704013 -0.07728809552409108 0.0 0.0 0.0 0.0 1.3536246041701625 -0.13299782614208588 0.0 1.3581791230375517 0.1548410987835571 0.0 0.0 0.0 0.0 0.0 0.0 0.0 1.0 0.0 0.0 0.0 0.0 0.0 0.0 0.0 0.0 0.0 0.0 0.0 0.8425985049767039 -0.23190295090305676 0.0 1.151411484338423 -0.34434564097685344 0.0 0.8637784288313004 0.22928996448099098 0.0 1.1662695109528438 0.35407682695953546 0.0 0.4282352930793721 -0.003995691384096367 0.0 0.16558943249157923 0.06260433985875458 0.0 0.1693024983249026 -0.06071737562185034 0.0 -0.027541772129412893 -0.03836240312834278 0.0 -0.02588227145088128 0.03630009833649302 0.0 0.33438236590258746 -0.27987179728444356 0.0 0.8579016604959507 -0.673482703388916 0.0 0.6400030410872048 -0.6881753642952408 0.0 1.2061448442106748 -0.6133156493882833 0.0 0.4160556108104661 -0.0688759353095728 0.0 0.33044312407988397 0.2687192139248352 0.0 0.6428235119192252 0.669301585679142 0.0 1.185150113354793 0.615367795928355 0.0 0.40754308262466 0.07171160941983187 0.0 1.3132219136610523 0.2609176361558174 0.0 0.3236853043959707 0.2519723966742523 0.0 1.302650486363771 -0.2405025410080174 0.0 0.3149066160747215 -0.24003850551192402 0.0 -0.03350595432371692 -0.016981130585615407 0.0 1.1248556807794376 -0.3987624468655201 0.0 1.093203386391948 -0.7243557517248969 0.0 0.852049676176417 0.7707281590306961 0.0 1.1314089917245789 0.3995473775566945 0.0 0.75944540177213 0.18597862356028566 0.0 0.10884795698591687 0.05146549144842975 0.0 0.7692866362432916 -0.1819393185641013 0.0 0.11120502180256668 -0.04999682590455533 0.0 -0.029555084387820164 0.019078289894836113 0.0 1.0275098442819472 0.7188726994693184 0.0 0.44237303848329246 0.5291706657349023 0.0 0.4577747294462242 0.17748262010728025 0.0 0.27159505971434106 0.06906533669665188 0.0 0.46434653700021095 -0.17388146527013193 0.0 0.27723167938161475 -0.06471428210284312 0.0 -0.07510734913423375 0.0022276757062421313 0.0 0.965472048078875 0.31739979173731064 0.0 1.2605409771732103 0.3131799847575472 0.0 1.245111593371385 0.28883473953924266 0.0 1.234850606591861 -0.30767719117034303 0.0 1.2478476895465163 -0.2810435372202758 0.0 1.2201821855082176 0.33100309940195755 0.0 1.2261205401844875 -0.3226870297751179 0.0 0.44289691284328275 -0.5445968347197023 0.0 0.8020193115913744 -0.13964617590970713 0.0 0.6715162290211525 -0.4197228215665421 0.0 0.8773614379792982 0.5938277116570336 0.0 0.7993030276284449 0.14278850778048327 0.0 0.676486063104716 0.4201285541072954 0.0 1.292650820242248 -0.00719426983212276 0.0 0.2934027510422672 0.14435488833684498 0.0 0.294640772081409 -0.13457059832809995 0.0 -0.054350052952909164 -0.012968442256249888 0.0 1.2650678722706254 0.4717995598739184 0.0 0.7686785078676871 0.12090963502374108 0.0 1.2611197961961127 -0.4733121758399258 0.0 0.7891290271450387 -0.11549403995619008 0.0 1.275606381416886 0.4180447244646643 0.0 1.2539930423589842 0.40111586927026727 0.0 1.2715713509942583 -0.4142703882911032 0.0 1.2447054790390453 -0.3811417154385485 0.0 0.583530062755952 -0.1605491322726142 0.0 0.7964381577323834 -0.3318259105182323 0.0 1.0104272917415082 0.6037871836352773 0.0 0.5917478335239479 0.1505873609646934 0.0 0.8125567778846663 0.3316884929583583 0.0 0.7459176210956144 0.08081096677276149 0.0 0.78253049747057 -0.07306978340980819 0.0 0.052238018241742436 -0.022076468016056037 0.0 1.3634323399869486 0.20745911714012116 0.0 0.9298270209631793 -0.32223820648512785 0.0 1.3445673138494048 -0.1900478601470895 0.0 0.4094291453209242 0.0908353470195329 0.0 0.4270502131307895 -0.07832939337038596 0.0 -0.05450970276973769 -0.008233219519178296 0.0 1.0573536147980878 0.3539920663995485 0.0 0.9431549735864444 0.3914626520989665 0.0 0.92219500497369 0.11238577942762314 0.0 0.8242424236632087 -0.08685991964399765 0.0 1.3068918698447731 0.0166215980646666 0.0 1.0275159346345877 -0.3452070057790691 0.0 1.0744913756251375 -0.5703414709622703 0.0 0.9301359054516382 -0.38940816210024204 0.0 0.99746926610822 -0.43866447375925816 0.0 0.9329341054937617 -0.5428436924704861 0.0 0.8655348610123909 -0.40651414622780974 0.0 1.2734388361433968 0.23289919412716037 0.0 1.2714584156454982 -0.21957478838910066 0.0 0.8526582732072348 -0.2356406880328432 0.0 0.879053129622579 -0.3099644213020076 0.0 0.8528982990858734 -0.29905769944413446 0.0 0.8514123293415043 -0.256410001415894 0.0 0.8542143625613675 -0.2527890993984872 0.0 0.8962766549480774 -0.31947723968462377 0.0 1.3292112295552694 0.3155882057167081 0.0 1.0844971508625294 -0.002460485323287198 0.0 1.3145812300068658 0.36234851626309267 0.0 1.321365281718891 -0.2960745110010926 0.0 0.0 0.0 0.0 0.0 0.0 0.0 1.2994473104829778 -0.3494890312669601 0.0 0.7142464168223938 -0.26733377504779127 0.0 0.8203937793741617 -0.21077757429088315 0.0 0.8711725796923567 -0.11076478874378477 0.0 0.8624424858714388 -0.1637774416289999 0.0 0.9375 0.0 0.0 0.7500000000000001 0.0 0.0 0.7224713623509392 0.2652907825817358 0.0 0.8240357099823404 0.20013433465335617 0.0 0.7499999999999999 0.0 0.0 0.869715776230881 0.1278141481767713 0.0 0.9287121034101123 0.042830719221013676 0.0 0.8481116119459645 0.045058435753652475 0.0 -0.03485540643349283 -0.011634912406668337 0.0 0.09149638841883756 -0.017606108752492106 0.0 1.11501506498631 0.5547688806715484 0.0 1.0190110239434496 0.4731386928973791 0.0 0.8809700349554008 0.24546793494380467 0.0 1.2000768895212202 0.13905037560910896 0.0 1.328817118010281 0.05980383362612589 0.0 0.3521475677100171 0.03796605233845916 0.0 1.3561178287770925 0.10287467246772582 0.0 0.7139931476941833 0.05372397509933033 0.0 1.1711571089748194 0.10021529251264658 0.0 0.5146617044283425 0.015765571768526755 0.0 0.496315623368086 0.02998832836416386 0.0 0.06985721096342472 0.013258530002259754 0.0 0.9566535802617656 0.03449432343115119 0.0 0.2572299777771237 0.022054483575687196 0.0 0.1633155154742918 0.008357984691321395 0.0 0.2677227000032234 0.014499479251912294 0.0 0.6666230982879182 -0.004885855566222203 0.0 0.49838257967868493 0.006915575707304717 0.0 1.3156838232915233 0.019299951327192925 0.0 0.5424611235460678 0.06224574845363455 0.0 1.2302099204424763 -0.14201371903319887 0.0 0.20209734042727426 -0.0375894635421988 0.0 1.2057731614137068 0.17355063095922846 0.0 0.8828229327732093 0.1797374870172684 0.0 0.7011243337228633 -0.1679604003334981 0.0 1.115572994488924 -0.0942240539173213 0.0 1.038551316123516 -0.22376705715952172 0.0 0.8637526130474935 -0.18265936484055917 0.0 0.8754197044149888 -0.02560306712261379 0.0 0.43951365621841276 -0.04810888464227247 0.0 0.2905251481894213 -0.03310384214851889 0.0 1.3289718299421678 -0.04193398878785986 0.0 0.2085742161146583 -0.01358666395493914 0.0 1.3554441278170102 -0.08638829729289223 0.0 0.19155618535816393 -0.01912982944691836 0.0 0.5355986053394566 -0.015746765508805452 0.0 -0.0014981851724984938 -0.011362008841779446 0.0 0.5722719323359559 -0.03149201954371297 0.0 0.8788898088449826 0.2971503777097088 0.0 0.8795582609113439 0.41076504489452514 0.0 0.8850909620037141 0.2703302722022206 0.0 0.9122188394488719 0.10984543799486636 0.0 0.8651772387442805 0.22329172721713408 0.0 0.9047257279949774 0.30371482257051097 0.0 0.8572356647887042 0.23351768028872893 0.0 0.8020250395265555 0.18337850864722188 0.0 0.8670541871500302 0.1615281410439775 0.0 0.0 0.0 0.0 0.8415173850832471 0.17669200585512201 0.0 0.8706548967061002 0.17101935041295416 0.0 1.2130981205420697 0.04976421896130116 0.0 1.237571099783124 0.06494009055885251 0.0 0.8902205682843919 0.013183551665429824 0.0 0.5939081161661602 -0.026028854504874847 0.0 1.279850466276238 0.14708754141555339 0.0 0.7176189747096257 -0.1737298558648599 0.0 1.1780101956388125 -0.16455750522848928 0.0 0.9986400905420584 -0.019847652886332924 0.0 1.3236229558187802 -0.007764417972904634 0.0 0.5855156653261662 -0.0002225606969949472 0.0 1.220476214733994 -0.012641971821347412 0.0 0.9835101980207593 0.009153502896614363 0.0 -0.0044413828087722425 -0.007244264519020315 0.0 -0.09616353764523339 0.0009109689434889319 0.0 0.9448554687526397 0.3412220920203884 0.0 0.8777105590459766 -0.018465371040838112 0.0 0.4274339191463211 -0.008280868814975827 0.0 0.0 0.0 0.0 1.3286152347728588 0.037501628094283083 0.0 1.2125587187085036 0.024927322087080442 0.0 1.3172144662484269 0.11458883127964574 0.0 1.2523949049312921 -0.04428471071785824 0.0 0.4135926777447961 -0.013870866499377627 0.0 1.2283813604634664 0.010463671712179325 0.0 1.2913215245111245 0.05692525008018398 0.0 0.04112224979810736 -0.010003740486210201 0.0 -0.08248459555050791 -0.005341680854824111 0.0 -0.06762339832906694 -0.007696332692690042 0.0 -0.08119417062315923 0.002825174438342749 0.0 1.1857889568468 0.2197133555222036 0.0 0.7774449584903979 0.19846878336548246 0.0 0.7779128999708174 0.15422600775608353 0.0 0.785736555197013 0.1069033507207483 0.0 0.6205723132229061 0.11097672428074205 0.0 0.35293114500829026 0.0013207426250482419 0.0 0.09319110966376146 0.003679151441871443 0.0 0.3645178815875495 -0.020698918671464908 0.0 1.0719425135784222 0.07672737222168692 0.0 0.0 0.0 0.0 0.5199460585311182 0.011285783031572303 0.0 0.9319640887534525 0.029139077173035616 0.0 -0.10943303535904775 0.00031594904878845883 0.0 1.0969976191271738 0.2670141996454124 0.0 0.9003330623268135 0.11239078513606696 0.0 1.2801745918217138 -0.04948907321860766 0.0 0.18684204982607525 -0.003851500983629113 0.0 0.3589742143560059 0.017661914837586355 0.0 0.14319053890347996 -5.782365034493171e-05 0.0 1.3030713881621947 0.03926734077507496 0.0 -0.10612717188539962 -0.0018402415211526658 0.0 -0.07748673369813014 -0.006780102034803155 0.0 -0.09775548741152722 -0.0048293525626227 0.0 -0.04360820447329456 0.006763446836794141 0.0 -0.09567261725871727 0.0007911200885607473 0.0 -0.1159225730279974 -0.00023461712877780223 0.0 -0.0668074673001172 -0.0022802210362080065 0.0 -0.041529914792418715 0.0031927788662560546 0.0 -0.11972393294319984 -0.002303577402424393 0.0 0.07500622848916746 -0.0022052680074150922 0.0 -0.03894142969992962 0.005421734602864256 0.0 -0.12319251576365771 -0.0013183103916525475 0.0 -0.12185560738438371 -0.0009849885214827082 0.0 -0.02403440731371006 -0.002633769120857479 0.0 0.0 0.0 0.0 0.9464082639316149 0.25544565921486556 0.0 0.951352224923218 0.0400999950732663 0.0 0.2246080201667048 -0.004583997764306256 0.0 0.30870161699850185 -0.004642732017799692 0.0 0.5444278148513213 0.02081022474985566 0.0 0.9124582514545841 0.04295080470401776 0.0 1.192162576484613 0.03453579631931044 0.0 1.3536524692168117 0.014655628469731499 0.0 0.08817010974247853 0.0020104953251012937 0.0 -0.03613878726672363 -0.00014134446565328856 0.0 0.02221512942588979 -0.011697242706840907 0.0 0.13503264557849234 -0.008922401240911397 0.0 0.12511545711459357 -0.013938515583464092 0.0 0.31501446835576535 -0.023398549583653745 0.0 0.5746225340199337 -0.0509377840249372 0.0 0.8590858630701338 -0.052487484545082584 0.0 0.36619368253347795 -0.03184667482895479 0.0 0.5547737982169888 -0.03595386658139287 0.0 0.6500066518931349 -0.04784046260488288 0.0 0.7698252547952393 -0.041165872694526325 0.0 0.2585250984157722 -0.028282119341807663 0.0 1.2726346010263088 -0.06459465988265392 0.0 1.058266599745614 -0.05187275292976919 0.0 1.2863945196637934 -0.02911148330160581 0.0 1.0487851374129273 -0.03978488647518256 0.0 -0.04323593620256111 -0.008769910758852605 0.0 1.0267306887430145 -0.06700155840420198 0.0 1.0599726780573893 -0.030150258918425592 0.0 1.2270057629073632 -0.10339372352760774 0.0 -0.1090369708345281 -0.002094915339111417 0.0 0.45972303287770644 -0.04563973809224559 0.0 1.2513082062682157 -0.10532841872994253 0.0 0.13097955934044578 -0.021722479297367002 0.0 -0.12219170961596494 -0.0009137065903917152 0.0 1.2613529429008006 -0.08724370043145924 0.0 0.06256780638841172 -0.020816268388870022 0.0 -0.11175572000261665 -0.0025170777260516645 0.0 -0.026283671311406385 0.010064327751754044 0.0 0.04509968073624949 -0.017543954402525708 0.0 -0.06808792648733054 -0.007799644979522722 0.0 0.4178033274588973 -0.04881313632842056 0.0 -0.04807928825160525 -0.010424589044661994 0.0 0.1123380211138153 0.03077221604378753 0.0 -0.08247655220816397 0.005827770428875542 0.0 -0.07319472235424843 -0.005873811760738802 0.0 -0.09973074620617116 0.0009549532656932609 0.0 0.039480655780179605 0.017344869393171005 0.0 1.2154096388129034 0.10252636993456321 0.0 0.32778107319222644 0.037485249966443215 0.0 0.3037317178106226 -0.04440104776066805 0.0 0.2554262474948853 -0.01035886844424718 0.0 0.7079082907057548 -0.020725036510219518 0.0 0.3062562315621738 0.005420486580836795 0.0 1.1767714577298323 0.052980866629406397 0.0 0.8891188541249134 0.06100020811992706 0.0 0.9286257594936329 -0.08261171320875837 0.0 -0.04776510520358013 -0.004431887514430096 0.0 -0.05914441551015532 -0.003860383203717024 0.0 -0.11925117865969131 -0.0016574610112378666 0.0 -0.04573251785902251 0.003937324411914175 0.0 -0.07988590585316248 -0.004320240390912493 0.0 0.32516112646930645 -0.038473107656393966 0.0 1.2580813466432084 -0.09333680741330198 0.0 0.6254058935805902 -0.061506778915421265 0.0 0.8930319951070796 -0.08563400650598932 0.0 -0.028968952917966907 0.013175355069544922 0.0 0.06018665604594814 -0.022528126041529234 0.0 -0.008044776147088964 -0.014329890426822265 0.0 0.20753613036595953 -0.03815515098733561 0.0 -0.01699408280043289 -0.01403741116156093 0.0 1.2530870580328604 0.10629917058645158 0.0 -0.06715087442481557 -0.00045916546618211503 0.0 -0.015071553205360818 0.011497978932055881 0.0 -0.05177987394325687 0.0007952185324339682 0.0 0.053943924983482314 -0.02093795959785926 0.0 0.3373410610673693 0.024496431594859036 0.0 0.6873069675646518 -0.06987168841613796 0.0 0.5065006046836352 -0.05953058412258043 0.0 0.7863060779368315 -0.06821957818276415 0.0 0.2637852716823046 -0.03815012229351462 0.0 0.8185003239231767 -0.08728858886468692 0.0 1.1661030106790296 -0.09085434584482555 0.0 1.0670466687797922 -0.08349093871970782 0.0 1.0402979992536932 -0.07504681178320279 0.0 0.5911992959876198 -0.06912639106469845 0.0 0.5026822981834993 -0.064077110937041 0.0 0.38999171799378163 -0.05682843111969221 0.0 0.36532588554499573 -0.05355406177846893 0.0 0.14347670908569476 -0.03242678668707556 0.0 0.7861253987209968 -0.08786492350768983 0.0 0.259701163700898 0.01454616824644946 0.0 0.6068951936017093 0.0377532596308824 0.0 0.06695970691517131 0.0058152595039947 0.0 0.1715578812160944 0.017695098498889644 0.0 -0.0704320512706764 7.339713947169643e-05 0.0 1.3327777409302495 -0.02443062922643264 0.0 1.2179725237281362 0.0411756930268287 0.0 1.3550904893263997 -0.01202849117531554 0.0 1.3266867528129604 -0.06306438605312117 0.0 0.16832781890474646 -0.03524236622136894 0.0 0.3563973282391104 -0.054026928013660595 0.0 0.5588698873892816 0.04676565564900504 0.0 0.08716744618403123 0.015497163381055968 0.0 1.3082754256703475 0.004067528962190915 0.0 1.348159459417507 -0.032911514984058476 0.0 0.5175256561441405 0.06894387626252911 0.0 1.3271019393705725 -0.07652137878151055 0.0 0.5887476303655926 0.04322785224906423 0.0 1.282575966418675 0.0720365983021157 0.0 0.3328270918983994 0.03357402867112584 0.0 0.7042642172563504 0.0638628801152705 0.0 1.334795174791734 0.02416209192539836 0.0 1.2312107673196735 -0.024165548496145155 0.0 1.3178293145697808 -0.08652697536362022 0.0 0.8250703878964759 0.061396673094872706 0.0 1.0479355471892857 0.07907792678483515 0.0 1.1071154029400412 0.07242378845104869 0.0 1.2667545142187768 0.098768262405054 0.0 1.1286152439036206 0.09756383633333746 0.0 0.9749948909618448 0.08142711936223934 0.0 0.6689385044038856 0.06750178050606771 0.0 1.2735917719104208 -0.08982386284066952 0.0 0.0 0.0 0.0 1.3080117808237015 0.057897858109513894 0.0 0.9170278362784247 0.08984815148163246 0.0 0.3254114227253123 0.042123357948040736 0.0 1.3159450640677508 0.07175249895275265 0.0 0.8995012253993504 0.08558437634608071 0.0 1.2707391552232323 0.09149996808035978 0.0 0.5982652982218513 0.06647438248564089 0.0 1.2616976318268525 0.10385184855536424 0.0 0.5491704476070804 0.06849402548875014 0.0 0.25591611362152045 0.04050732259975249 0.0 1.1465753094699953 0.10187208771968516 0.0 0.6614742660362183 0.07504953436670923 0.0 1.072251404334371 0.10368106524427156 0.0 0.8445690152744777 0.09084368440300425 0.0 0.7755171218866317 0.08902728785140049 0.0 1.195725331528236 0.08889947053010337 0.0 1.1161826350251185 0.09208831376029798 0.0 1.3062136784793064 0.08206387687114591 0.0 0.1557831319056562 0.02902188369148725 0.0 1.151879318627793 0.07918153968630665 0.0 1.2162046387050265 0.10676434401406758 0.0 1.1570206239362029 0.10773296655126015 0.0 1.2329866432542973 0.10714954795789501 0.0 1.2431744163723337 0.10833273069989624 0.0 1.291085618080368 0.08726360203552667 0.0 1.1831323057058634 0.06855873668808185 0.0 0.9444565158861221 0.10158438769681666 0.0 1.2288351204544934 0.09259315271438784 0.0 1.2788317871248733 0.09086960057504608 0.0 1.0449272859638603 0.06535840026831506 0.0 1.1617717427816796 0.10964301719498375 0.0 1.0784207466048348 0.10803800506315968 0.0 1.0592679439928188 0.10636173010519218 0.0 1.2318604141768623 0.09681209800693436 0.0 0.0 0.0 0.0 0.644506185531732 -0.005607500180525948 0.0 1.0778276983879311 0.43422587115186795 0.0 1.1668940649463249 0.42223339608880206 0.0 1.0822613282254692 -0.4267970035660139 0.0 0.8656123285183668 -0.22703232621767888 0.0 0.9789026201554099 -0.25552690543482665 0.0 0.8923698911865432 -0.08499837824090684 0.0 1.2228529309841467 -0.05231349108585861 0.0 1.0814836545567104 -0.06401660114981679 0.0 1.1987152138555834 -0.10446169989766795 0.0 1.2652096535356092 -0.0845628912968667 0.0 1.315378328734382 -0.05371329548294881 0.0 -0.08319201039485226 -0.0026679850269974163 0.0 -0.050345403953516596 0.0074923900081090644 0.0 0.0007874933749510455 0.009830259803820556 0.0 0.0007092745425131911 0.011887052315849732 0.0 0.14689750423260767 0.026695471075872956 0.0 -0.05712303737039839 0.008079923628766186 0.0 0.0613013815565606 0.021818576371087223 0.0 0.2170749953963983 0.03707669488263296 0.0 0.08500432260773275 0.038175592034108335 0.0 -0.03610317367107599 0.014966706033620061 0.0 1.034808975423488 0.1607648488451399 0.0 -0.07011923084077486 0.00456116896799536 0.0 1.2549421332330182 -0.1003568095468256 0.0 1.1421222709504417 -0.09795056445572829 0.0 0.9509256685261444 -0.09215706449310558 0.0 1.1044001111564465 -0.10184855714538339 0.0 1.2401902478030733 -0.10643090249799528 0.0 0.9136608220613425 -0.09504380586947288 0.0 1.2476657848043036 -0.10655621126088052 0.0 1.0785289667726705 -0.10463275598260799 0.0 1.1336199463962893 -0.1046126638478083 0.0 0.864852447545895 -0.09448509904574207 0.0 0.9082405485076843 -0.09689289560450273 0.0 0.6273050851846539 -0.077235774276444 0.0 1.1052301199274281 -0.10722559380288818 0.0 1.2340296709859786 -0.106287112628191 0.0 1.0700409832137698 -0.10507533068970368 0.0 1.1683526952273975 -0.08585783792307695 0.0 1.193989025697753 -0.10844344953819793 0.0 0.6837063379495683 -0.08132815972146142 0.0 1.1420952540502245 -0.10567473105218332 0.0 0.9406782576256302 -0.09839801502796582 0.0 0.6