<?xml version="1.0"?>
<VTKFile type="UnstructuredGrid"  version="0.1"  >
<UnstructuredGrid>
<Piece  NumberOfPoints="1289" NumberOfCells="2413">
<Points>
<DataArray  type="Float64"  NumberOfComponents="3"  format="ascii">0 0 0  0 0.41 0  2.2 0.41 0  2.2 0 0  0.1 0.1 0  0.1 0.3 0  0.8 0.3 0  0.8 0.1 0  0.25 0.2 0  0.248976 0.210065 0  0.245948 0.219718 0  0.241038 0.228563 0  0.234448 0.23624 0  0.226448 0.242432 0  0.217365 0.246888 0  0.207571 0.249423 0  0.197468 0.249936 0  0.187467 0.248404 0  0.17798 0.24489 0  0.169395 0.239539 0  0.162062 0.232569 0  0.156283 0.224265 0  0.152293 0.214968 0  0.150257 0.205058 0  0.150257 0.194942 0  0.152293 0.185032 0  0.156283 0.175735 0  0.162062 0.167431 0  0.169395 0.160461 0  0.17798 0.15511 0  0.187467 0.151596 0  0.197468 0.150064 0  0.207571 0.150577 0  0.217365 0.153112 0  0.226448 0.157568 0  0.234448 0.16376 0  0.241038 0.171437 0  0.245948 0.180282 0  0.248976 0.189935 0  1.1 0 0  1.1 0.41 0  0.1 0.2 0  0.45 0.1 0  0.45 0.3 0  0.55 0 0  0.275 0.1 0  0.275 0.3 0  0.275 0 0  0.55 0.41 0  0 0.205 0  0.825 0 0  0.825 0.41 0  0.275 0.41 0  0.1 0.15 0  0.1875 0.1 0  0.1 0.25 0  0.1875 0.3 0  0.132322 0.2 0  0.241426 0.253518 0  0.241426 0.146482 0  0.264574 0.17974 0  0.264574 0.22026 0  0.138434 0.187348 0  0.153372 0.150948 0  0.148413 0.164094 0  0.176495 0.136535 0  0.22768 0.143571 0  0.138434 0.212652 0  0.148413 0.235906 0  0.176495 0.263465 0  0.22768 0.256429 0  0.23125 0.3 0  0.24769 0.24094 0  0.23125 0.1 0  0.24769 0.15906 0  0.26253 0.193641 0  0.190482 0.137872 0  0.166753 0.146661 0  0.157737 0.244461 0  0.190482 0.262128 0  0.203107 0.261264 0  0.253635 0.22977 0  0.203107 0.138736 0  0.253635 0.17023 0  0.261028 0.206206 0  0.167707 0.251809 0  0.143629 0.224191 0  0.215302 0.2591 0  0.270465 0.245894 0  0.215302 0.1409 0  0.270465 0.154106 0  0.284052 0.202587 0  0.14375 0.3 0  0.209375 0.3 0  0.225966 0.278501 0  0.209375 0.1 0  0.225966 0.121499 0  0.211613 0.273759 0  0.211613 0.126241 0  0.143629 0.175809 0  0.1 0.175 0  0.133484 0.164832 0  0.144491 0.249539 0  0.1 0.225 0  0.133484 0.235168 0  0.3625 0.3 0  0.25691 0.253381 0  0.25691 0.146619 0  0.277205 0.188698 0  0.184724 0.275712 0  0.237372 0.268285 0  0.184724 0.124288 0  0.237372 0.131715 0  0.197578 0.273149 0  0.193656 0.286994 0  0.197578 0.126851 0  0.193656 0.113006 0  0.122953 0.187671 0  0.118362 0.153758 0  0.155372 0.258107 0  0.122953 0.212329 0  0.118362 0.246242 0  0.276394 0.27264 0  0.276394 0.12736 0  0.280965 0.170013 0  0.253125 0.3 0  0.14375 0.1 0  0.253125 0.1 0  0.269489 0.26014 0  0.269489 0.13986 0  0.303639 0.184297 0  0.165625 0.3 0  0.134742 0.273113 0  0.257831 0.274737 0  0.255279 0.128499 0  0.3625 0.1 0  0.165625 0.1 0  0.162031 0.132368 0  0.134955 0.126405 0  0.149334 0.125568 0  0.142936 0.139597 0  0.12695 0.140259 0  0.242514 0.285501 0  0.242514 0.114499 0  0.1 0.125 0  0.117483 0.12555 0  0.11154 0.139776 0  0.121875 0.1 0  0.109143 0.1125 0  0.126805 0.114 0  0.220313 0.29129 0  0.351562 0.287369 0  0.207222 0.2866 0  0.220312 0.10871 0  0.1375 0 0  0.20625 0 0  0.207222 0.1134 0  0.11722 0.17118 0  0.1 0.1625 0  0.0778409 0.16875 0  0.0862762 0.15625 0  0 0.15375 0  0 0.1025 0  0.11722 0.22882 0  0.1 0.2375 0  0 0.3075 0  0.0862762 0.23125 0  0.0598995 0.222547 0  0.0860223 0.2125 0  0.289584 0.181469 0  0.300267 0.16446 0  0.163832 0.269071 0  0.149597 0.273325 0  0.1 0.275 0  0.268498 0.285953 0  0.31875 0.3 0  0.294154 0.254672 0  0.296875 0.3 0  0.293558 0.271845 0  0.285095 0.286799 0  0.324298 0.264316 0  0.307866 0.263745 0  0.317093 0.234901 0  0.315485 0.281219 0  0.316547 0.250625 0  0.344693 0.243731 0  0.331592 0.251147 0  0.35129 0.270663 0  0.338689 0.263683 0  0.340625 0.3 0  0.249849 0.264383 0  0.265097 0.11422 0  0.284688 0.156136 0  0.242188 0.324017 0  0.0856613 0.2625 0  0.132812 0.0612217 0  0.264062 0.0612217 0  0.198437 0.07598340000000001 0  0.0860223 0.1375 0  0.0794526 0.191089 0  0.285228 0.140397 0  0.298655 0.148737 0  0.31875 0.1 0  0.327335 0.15374 0  0.296875 0.1 0  0.312289 0.155283 0  0.313348 0.135607 0  0.321802 0.173916 0  0.298433 0.134116 0  0.112124 0.2625 0  0.127526 0.259083 0  0.121875 0.3 0  0.0682687 0.241503 0  0.1 0.2875 0  0.117762 0.28125 0  0.107813 0.3 0  0.103906 0.313849 0  0.0778409 0.28125 0  0.1375 0.41 0  0.0862762 0.29375 0  0.08886860000000001 0.24375 0  0.307812 0.338778 0  0.307812 0.292227 0  0.33216 0.279164 0  0.387888 0.266414 0  0.264063 0.31948 0  0.110937 0.07598340000000001 0  0.242188 0.07598340000000001 0  0.319914 0.11839 0  0.340625 0.1 0  0.334448 0.133793 0  0.329687 0.108539 0  0.346259 0.118491 0  0.360334 0.173636 0  0.327539 0.205033 0  0.132812 0.288712 0  0.362436 0.278836 0  0.368105 0.259418 0  0.4125 0.41 0  0.329687 0.324017 0  0.329687 0.292306 0  0.285938 0.318952 0  0.417187 0.338778 0  0.324481 0.14148 0  0.351562 0.106771 0  0.40625 0.1 0  0.341028 0.168342 0  0.319221 0.190479 0  0.335292 0.184501 0  0.305563 0.20794 0  0.220313 0.31948 0  0.132812 0.332772 0  0.0865876 0.311259 0  0.0598995 0.302453 0  0.0906541 0.343255 0  0.353543 0.255837 0  0.36574 0.237633 0  0.405007 0.254279 0  0.275795 0.352123 0  0.4125 0 0  0.35493 0.137394 0  0.366563 0.120618 0  0.35917 0.205246 0  0.198438 0.318952 0  0.0626109 0.263892 0  0.40625 0.3 0  0.354809 0.155936 0  0.386512 0.146872 0  0.373101 0.159939 0  0.384375 0.1 0  0.343394 0.19929 0  0.350682 0.185683 0  0.368101 0.189748 0  0.344016 0.221511 0  0.391108 0.213329 0  0.376279 0.204783 0  0.398843 0.182768 0  0.375804 0.222746 0  0.390665 0.196958 0  0.394004 0.23518 0  0.359883 0.222828 0  0.419908 0.204359 0  0.404243 0.204783 0  0.412615 0.224526 0  0.20625 0.41 0  0.165625 0.325257 0  0.0347982 0.244954 0  0.379558 0.247154 0  0.34165 0.147603 0  0.372264 0.136992 0  0.388988 0.121989 0  0.373437 0.108554 0  0.351562 0.31948 0  0.391367 0.16527 0  0.399572 0.223324 0  0.452011 0.227371 0  0.40877 0.239392 0  0.431491 0.237337 0  0.421224 0.250459 0  0.449619 0.262098 0  0.418865 0.276779 0  0.437063 0.252274 0  0.415673 0.263227 0  0.430988 0.266772 0  0.402767 0.273419 0  0.452967 0.244883 0  0.428125 0.3 0  0.408502 0.286186 0  0.384375 0.3 0  0.392267 0.285807 0  0.465927 0.219339 0  0.43489 0.283846 0  0.376424 0.286289 0  0.625 0.3 0  0.473533 0.205186 0  0.461713 0.255517 0  0.5375 0.3 0  0.465725 0.235405 0  0.44631 0.201425 0  0.471875 0.3 0  0.494307 0.227729 0  0.459448 0.206736 0  0.462294 0.180792 0  0.478933 0.227536 0  0.486793 0.21381 0  0.486322 0.251373 0  0.50065 0.215318 0  0.54005 0.175389 0  0.474633 0.189893 0  0.512916 0.208697 0  0.49531 0.199967 0  0.475889 0.175275 0  0.625 0.1 0  0.459311 0.153933 0  0.513645 0.242704 0  0.392892 0.248539 0  0.374815 0.271913 0  0.365974 0.14871 0  0.395312 0.109184 0  0.417061 0.123981 0  0.483196 0.277003 0  0.381967 0.179632 0  0.429898 0.219374 0  0.433473 0.206165 0  0.43149 0.181038 0  0.444208 0.215487 0  0.472985 0.247309 0  0.49375 0.3 0  0.475579 0.262714 0  0.49916 0.274293 0  0.501175 0.184809 0  0.514164 0.225681 0  0.543648 0.214977 0  0.5341630000000001 0.23481 0  0.527396 0.216171 0  0.5375 0.1 0  0.534548 0.202315 0  0.561545 0.192513 0  0.5494289999999999 0.201221 0  0.570923 0.218346 0  0.412582 0.149833 0  0.489327 0.264745 0  0.502439 0.254775 0  0.462391 0.271166 0  0.496775 0.241732 0  0.5294410000000001 0.268606 0  0.482812 0.291099 0  0.46879 0.285038 0  0.452663 0.284065 0  0.51789 0.257882 0  0.53408 0.252026 0  0.560142 0.243543 0  0.545708 0.243474 0  0.547532 0.229019 0  0.55282 0.265323 0  0.398971 0.153424 0  0.400349 0.135684 0  0.410135 0.168145 0  0.428823 0.161323 0  0.415266 0.183779 0  0.329687 0.0810483 0  0.395312 0.0612217 0  0.373437 0.318952 0  0.439062 0.324017 0  0.561816 0.229354 0  0.585029 0.239287 0  0.431827 0.139854 0  0.446796 0.168929 0  0.351562 0.07598340000000001 0  0.395313 0.318944 0  0.54337 0.150762 0  0.460937 0.31948 0  0.418412 0.137529 0  0.428125 0.1 0  0.442783 0.152332 0  0.450742 0.134294 0  0.373437 0.0805201 0  0.384383 0.342558 0  0.482812 0.318952 0  0.429239 0.127457 0  0.444274 0.117405 0  0.426548 0.113815 0  0.49375 0.1 0  0.488954 0.113984 0  0.457973 0.121842 0  0.471621 0.137346 0  0.515625 0.325257 0  0.48125 0.41 0  0.417187 0.07598340000000001 0  0.496363 0.126778 0  0.479043 0.155715 0  0.439062 0.0805201 0  0.481795 0.126919 0  0.471875 0.1 0  0.489227 0.142159 0  0.515625 0.1 0  0.520062 0.147117 0  0.501244 0.161791 0  0.505431 0.112984 0  0.505344 0.14029 0  0.526563 0.119081 0  0.5181750000000001 0.131908 0  0.539868 0.136937 0  0.460937 0.108383 0  0.474242 0.114415 0  0.460937 0.0810483 0  0.487841 0.167168 0  0.526563 0.0612217 0  0.526563 0.106406 0  0.537619 0.112743 0  0.58125 0.1 0  0.559375 0.1 0  0.482812 0.08105569999999999 0  0.471883 0.0587655 0  0.570312 0.129396 0  0.548437 0.07598340000000001 0  0.504687 0.08105569999999999 0  0.49375 0.0470127 0  0.570312 0.112663 0  0.592798 0.12103 0  0.553986 0.12103 0  0.570312 0.0805201 0  0.48125 0 0  0.114787 0.2 0  0.160769 0.284765 0  0.175816 0.288361 0  0.162602 0.116048 0  0.154687 0.07598340000000001 0  0.176562 0.0805201 0  0.0598995 0.147547 0  0.307812 0.109924 0  0.291279 0.117157 0  0.278491 0.112989 0  0.285937 0.07598340000000001 0  0.307812 0.0805201 0  0.296928 0.196743 0  0.318141 0.218507 0  0.330208 0.227509 0  0.301397 0.225668 0  0.302706 0.241401 0  0.292574 0.21424 0  0.282762 0.230935 0  0.284351 0.244775 0  0.269553 0.23261 0  0.278572 0.217242 0  0.226924 0.342606 0  0.446928 0.185396 0  0.515625 0.3 0  0.504687 0.288879 0  0.515256 0.276534 0  0.529479 0.285328 0  0.58125 0.3 0  0.541969 0.272936 0  0.559375 0.3 0  0.556796 0.282529 0  0.543473 0.287206 0  0.581429 0.267774 0  0.566728 0.271171 0  0.570869 0.255585 0  0.577404 0.283865 0  0.603125 0.3 0  0.597531 0.28035 0  0.570312 0.338778 0  0.592188 0.292492 0  0.603513 0.256094 0  0.614063 0.286265 0  0.610329 0.27064 0  0.632708 0.251285 0  0.657223 0.261594 0  0.618789 0.257807 0  0.614188 0.22987 0  0.630935 0.265614 
[...]
<PointData  Vectors="v"> 
	<DataArray  type="Float64"  Name="v"  NumberOfComponents="3" format="ascii">
0.0 0.0 0.0 0.0 0.0 0.0 0.0 0.0 0.0 0.0 0.0 0.0 0.7962270438253246 -0.19597672022875243 0.0 0.8404113993001403 0.20777534553665833 0.0 1.1693380700330187 -0.06045113017937897 0.0 1.1359319088814042 0.05481268247949977 0.0 0.0 0.0 0.0 0.0 0.0 0.0 0.0 0.0 0.0 0.0 0.0 0.0 0.0008485257847195809 0.0007824870970811632 0.0 -0.00010117650549908649 -0.0003110131562794998 0.0 0.0003615333300306686 0.0006384994688726212 0.0 0.0 0.0 0.0 0.0 0.0 0.0 0.0 0.0 0.0 0.0 0.0 0.0 0.0 0.0 0.0 0.0 0.0 0.0 0.0 0.0 0.0 0.0 0.0 0.0 0.0 0.0 0.0 0.0 0.0 0.0 0.0 0.0 0.0 0.0 0.0 0.0 0.0 0.0 0.0 0.0 0.0 0.0 0.0 0.0 0.0 0.0 0.0 0.0 0.0 0.0 0.0 0.0 0.0 0.0 0.0006265814444934301 -0.0010885946134772822 0.0 0.0008107619096085254 -0.0012694267873229544 0.0 0.0008516563016343656 -0.0008010238272770999 0.0 0.0 0.0 0.0 0.0 0.0 0.0 0.0 0.0 0.0 0.0 0.0 0.0 0.0 0.0 0.0 0.7613283833157076 -0.0012715080051194038 0.0 1.2755258227270736 0.0827363524310173 0.0 1.2662891786670651 -0.07756765845194487 0.0 0.0 0.0 0.0 1.3536341552795923 -0.13302096043384268 0.0 1.3582023751582517 0.15484097873731933 0.0 0.0 0.0 0.0 0.0 0.0 0.0 1.0 0.0 0.0 0.0 0.0 0.0 0.0 0.0 0.0 0.0 0.0 0.0 0.8425903296947687 -0.2318768780269985 0.0 1.1513757297109422 -0.3443275386114776 0.0 0.8637849384157433 0.22931687241711696 0.0 1.1663023286008152 0.35410726367003115 0.0 0.428235355075407 -0.003954449148080543 0.0 0.1648235572426851 0.062367225194845145 0.0 0.17010705291283 -0.06107258158321275 0.0 -0.02745301415708706 -0.03827158556425105 0.0 -0.025864863733878536 0.03631854346708205 0.0 0.33437487591775045 -0.2798260167264631 0.0 0.8578799924691561 -0.6734474018332188 0.0 0.6399835689641912 -0.6881356507594636 0.0 1.206121061639493 -0.613286854665127 0.0 0.41527320030553533 -0.0693598389896233 0.0 0.3304500926142636 0.2687647125445667 0.0 0.6428398921912668 0.6693408369505272 0.0 1.1851627974874306 0.6153981491172061 0.0 0.4082018351012089 0.0713089028983388 0.0 1.3132687468707136 0.2608904931967411 0.0 0.32335909084284287 0.25209954411130664 0.0 1.3026145042129067 -0.24056075017367176 0.0 0.31447423529940893 -0.2393391437641593 0.0 -0.03345736737454392 -0.016905613859742482 0.0 1.124861912149741 -0.39874360414474913 0.0 1.0931787258450782 -0.7243270290752309 0.0 0.8520681838064073 0.7707602850503282 0.0 1.1313802709866518 0.3995650537464774 0.0 0.7593738401852913 0.18603319895184428 0.0 0.10875338610702136 0.05146223755995067 0.0 0.769322776322378 -0.18188389857934825 0.0 0.11118553001334765 -0.049852346071391294 0.0 -0.02951437588135881 0.01910024209800231 0.0 1.0275221923451152 0.7188957745708405 0.0 0.44238857554645966 0.5292143989038598 0.0 0.4580847689127111 0.17788772600670744 0.0 0.2711632964950692 0.0690427809931285 0.0 0.4639694835406976 -0.17346184627672803 0.0 0.276991763469477 -0.06465199070346067 0.0 -0.07503995535750696 0.0023639782835031538 0.0 0.9654892997809383 0.31742464625245187 0.0 1.2605905327625004 0.31320957306106895 0.0 1.2452010021306765 0.28886738388756295 0.0 1.2348013103099713 -0.3076663075553089 0.0 1.2477232445667856 -0.28104696980925203 0.0 1.2202144674445057 0.3310727012831743 0.0 1.2260516393457082 -0.3226329334498041 0.0 0.4428796459640225 -0.5445519733296267 0.0 0.8020139495120979 -0.13961544584126637 0.0 0.6715022411795624 -0.41968143119107654 0.0 0.8773776901344221 0.5938621658047522 0.0 0.7993074865196427 0.14281930870419762 0.0 0.6764981081376584 0.4201699696203263 0.0 1.2928280878093719 -0.007225105026782918 0.0 0.293110754582949 0.14435849279768592 0.0 0.2946475005710584 -0.1343696251843125 0.0 -0.05429158390070231 -0.012864799684284906 0.0 1.2650845180170929 0.4718429567984252 0.0 0.768746766312941 0.12081395344372979 0.0 1.26109134091438 -0.4732788255359155 0.0 0.789015018772313 -0.11566082980894243 0.0 1.275625828340621 0.41810270130506905 0.0 1.2540285888042932 0.40115708832561575 0.0 1.271530985483228 -0.4142231263730137 0.0 1.244661449083272 -0.38111443934690575 0.0 0.5835239600452098 -0.16050844601134356 0.0 0.7964267282483461 -0.3317934217447292 0.0 1.0104446414402313 0.603819507874273 0.0 0.5917524962450434 0.1506280803851557 0.0 0.8125662384979242 0.3317216321940976 0.0 0.7458875047074862 0.08082861494727805 0.0 0.7825513179872586 -0.0730381205535324 0.0 0.05220763396407773 -0.022031177821247024 0.0 1.363493226592624 0.20745574659962596 0.0 0.9298085802017726 -0.32221660065115176 0.0 1.3445393156175303 -0.1900718711718977 0.0 0.40917921823891307 0.09083812847935004 0.0 0.42703902535491634 -0.07824647535374024 0.0 -0.05453648838706106 -0.008077382293727816 0.0 1.0573762810876994 0.35402023728094045 0.0 0.9431687192062328 0.39149170394888194 0.0 0.9222780649448457 0.1123388361569493 0.0 0.824160330949778 -0.0869555399007042 0.0 1.3067646331959213 0.01664208249592087 0.0 1.0274900825189401 -0.3451863170994242 0.0 1.0744680425078492 -0.5703124515891811 0.0 0.9301186680640523 -0.3893813905970324 0.0 0.997448399060396 -0.43863745986822533 0.0 0.9329140036215344 -0.5428119334257551 0.0 0.8655202022026127 -0.4064838243014912 0.0 1.273397210354277 0.23288920449502784 0.0 1.2715073823486223 -0.2196315130062449 0.0 0.8526492570642001 -0.23561957466961636 0.0 0.8790400799146408 -0.3099401519764116 0.0 0.8528870993792228 -0.2990313596966709 0.0 0.8513985427203093 -0.25639115225937603 0.0 0.8542031324450728 -0.25276912306565535 0.0 0.896261633331952 -0.3194543876803681 0.0 1.329284952641825 0.3156215638395198 0.0 1.0846775711374155 -0.0024373399753142267 0.0 1.3146312692893805 0.36238930370936695 0.0 1.3212881112518815 -0.2960737287341605 0.0 0.0 0.0 0.0 0.0 0.0 0.0 1.299387606595635 -0.3494704538481594 0.0 0.7142381711190389 -0.2672980360405934 0.0 0.8203866033453293 -0.21074951831230945 0.0 0.8711691738482469 -0.11074282508306313 0.0 0.8624373970194785 -0.16375469717059235 0.0 0.9375 0.0 0.0 0.7500000000000001 0.0 0.0 0.7224779247719921 0.2653265412465793 0.0 0.8240414501359796 0.2001631459370582 0.0 0.7499999999999999 0.0 0.0 0.8697193261133576 0.1278394955900306 0.0 0.9287134361979394 0.04284662689237752 0.0 0.8481122122989709 0.04508457444992297 0.0 -0.034851811328170015 -0.011524230345539024 0.0 0.09137512877256469 -0.01752169664370035 0.0 1.1150323430413769 0.5548019391015235 0.0 1.0190279270851152 0.47316928490590554 0.0 0.8809777812709976 0.24549099409468328 0.0 1.2001186063407732 0.13904965190228025 0.0 1.3288996661281447 0.05981583518040456 0.0 0.35191683144295466 0.03802294214860039 0.0 1.3561845429592905 0.10288513085516951 0.0 0.7139787420968015 0.053755964911463706 0.0 1.1712108323007724 0.1002281400355207 0.0 0.5146264342906807 0.01586053676525129 0.0 0.4962095239955895 0.03005610415969884 0.0 0.06979975435639259 0.013484465065076737 0.0 0.9567253622524989 0.034533688577580546 0.0 0.25710336874346595 0.022205848392652598 0.0 0.16333211847280413 0.008575968732314875 0.0 0.26767399901516553 0.014670383395037411 0.0 0.6667403078785004 -0.0048032832725823345 0.0 0.49840227350271793 0.007030130457284602 0.0 1.3158176561406236 0.01929794874713151 0.0 0.542463609064352 0.06215285782359574 0.0 1.230150827498426 -0.14203449508401594 0.0 0.201947825364933 -0.037552327241899344 0.0 1.205819469901012 0.173559150355955 0.0 0.8828277951842056 0.17975857601896805 0.0 0.7011104430355692 -0.1679490726380138 0.0 1.1155567672270765 -0.09423595752986844 0.0 1.038521256960161 -0.22375947361521395 0.0 0.8637464734053449 -0.18263980619222345 0.0 0.8754187243283854 -0.02557944332017679 0.0 0.43937082054608406 -0.048079368099802025 0.0 0.2903633675479867 -0.03303731443963917 0.0 1.3289411729931122 -0.04188811629957775 0.0 0.20836191210520658 -0.013436358061926336 0.0 1.3554192290815403 -0.08636250943128097 0.0 0.19137166512514228 -0.019023421411532314 0.0 0.5354911273190816 -0.015667035114093383 0.0 -0.0016274940140188023 -0.011179548993734386 0.0 0.5721625009888711 -0.031444308404368695 0.0 0.8788991967734765 0.2971777653057522 0.0 0.8795703334346583 0.41079677636745493 0.0 0.8851033272097366 0.27035284463197296 0.0 0.9122212616095967 0.10986377478937003 0.0 0.86518515074611 0.22331209602235724 0.0 0.9047369070888678 0.3037403020148602 0.0 0.8572453408971548 0.23353793122093336 0.0 0.8020339237873688 0.18339498415137068 0.0 0.8670591201301227 0.16154470822522962 0.0 0.0 0.0 0.0 0.8415233328002495 0.17670879401235431 0.0 0.8706593948735819 0.1710435609409877 0.0 1.2131381021808314 0.04974755257105779 0.0 1.2376516776260988 0.06496566554670224 0.0 0.8903207868326706 0.013235319131348556 0.0 0.5942005078162729 -0.025988213168637617 0.0 1.279887595914554 0.1470766836841511 0.0 0.7176091378351922 -0.17371652102430685 0.0 1.177983176889604 -0.1645607156891264 0.0 0.9985732686289143 -0.019791561217713107 0.0 1.3235403993557886 -0.007718998190645805 0.0 0.5853784423476498 -0.00010018782793887696 0.0 1.220406231081298 -0.01259201743160974 0.0 0.983398580630711 0.009238672228686 0.0 -0.004646078846349787 -0.006987438106283553 0.0 -0.09616111690835945 0.0011678276553884058 0.0 0.9448698108738401 0.34124846080937954 0.0 0.8779196087270482 -0.018431255900956955 0.0 0.4275895477146524 -0.008152189840191977 0.0 0.0 0.0 0.0 1.328674943912455 0.037477684765043734 0.0 1.2126862043258315 0.02494881077601414 0.0 1.3172629455964 0.11458463681312528 0.0 1.252378328487291 -0.04441294391790795 0.0 0.41342272158067506 -0.013759486569733349 0.0 1.228267823325471 0.010514858712133885 0.0 1.2911021746489368 0.05681843465518559 0.0 0.04091864440473413 -0.009783063293008579 0.0 -0.08251672289716298 -0.005131548836484753 0.0 -0.06771634417301549 -0.007458719680068145 0.0 -0.08116311387657288 0.0030416738508879707 0.0 1.1858330273511664 0.21971729527286568 0.0 0.7774585918409916 0.19848532068052394 0.0 0.7779185423514211 0.15424026559004186 0.0 0.7857394209222032 0.10691378450813002 0.0 0.6205786095630944 0.11098693733205472 0.0 0.35300146470871624 0.0014786496122683802 0.0 0.09328435156151006 0.0039046321447931244 0.0 0.36484322742444336 -0.020671502438017294 0.0 1.071981960720817 0.07672278027045767 0.0 0.0 0.0 0.0 0.5197138328593311 0.011437771140110315 0.0 0.931774194086251 0.02922147401850996 0.0 -0.1094446172025762 0.0005987637639235736 0.0 1.0970324183777957 0.2670344868571819 0.0 0.9003356201744102 0.11240531848831972 0.0 1.2804278420472721 -0.049635143222104085 0.0 0.1865586373989299 -0.0036356057887710837 0.0 0.35858265690169355 0.017818092107103757 0.0 0.14287771814720493 0.0001731314126615347 0.0 1.3028903011753277 0.039236007373062314 0.0 -0.10615823029327255 -0.0015699620101244025 0.0 -0.07759638249504679 -0.006514270996476066 0.0 -0.09785382516206202 -0.0045560786116475615 0.0 -0.04359424073730132 0.0070336044739149365 0.0 -0.09563469403362702 0.0010010040175343446 0.0 -0.11593830924292721 2.7483523414851962e-05 0.0 -0.06697600994733993 -0.002102181953056635 0.0 -0.04146456954958689 0.003434362449717085 0.0 -0.11978333006783955 -0.0020882791589906104 0.0 0.07517501962805168 -0.002048790215158857 0.0 -0.038893007817344484 0.005686973842138285 0.0 -0.12319300818755122 -0.0012899883471772092 0.0 -0.1218604481595269 -0.0008413083688860466 0.0 -0.02389774314900241 -0.0025597523162626855 0.0 0.0 0.0 0.0 0.9464320411435547 0.255466051230172 0.0 0.9513525224518213 0.04010799379583708 0.0 0.22477908779831612 -0.004416775371654962 0.0 0.30846181644568504 -0.00447415054829452 0.0 0.5441237239173402 0.020954910546006022 0.0 0.9121559158856153 0.04298980351273028 0.0 1.1919795442839416 0.03455746216301973 0.0 1.3537297271741695 0.014616389269588727 0.0 0.08785538153093492 0.0022053984691901667 0.0 -0.03602900321544723 1.471600404951201e-05 0.0 0.022420457487605603 -0.012010422483211484 0.0 0.1352682823148319 -0.008857810960065032 0.0 0.12538899883310597 -0.014045594167759998 0.0 0.315377202578884 -0.023457528460122733 0.0 0.5751528526390526 -0.05125039533498883 0.0 0.8595483943463275 -0.052638726310952434 0.0 0.36662446774865987 -0.032038019187432855 0.0 0.5552013984158587 -0.036027627548116184 0.0 0.6505087552701948 -0.04802207484293545 0.0 0.7702192502573509 -0.04122004892190745 0.0 0.25890455306373883 -0.028603854574358843 0.0 1.2728860607009405 -0.06480363582182512 0.0 1.0586508539102415 -0.05200588059482606 0.0 1.2866192763862911 -0.029188434340023033 0.0 1.0491188697054434 -0.0398487744346004 0.0 -0.04310597727075261 -0.00925431911702897 0.0 1.0272005092427365 -0.06725636381878512 0.0 1.060243495430142 -0.03017321266501859 0.0 1.2263136930372835 -0.10277315779536293 0.0 -0.10904143591482732 -0.0026948503361189425 0.0 0.4602070341961279 -0.04604633553221988 0.0 1.2509446144703686 -0.10543501904559846 0.0 0.13125448941421092 -0.02218379477038238 0.0 -0.12221679296945401 -0.001161982133969982 0.0 1.2614760798912794 -0.08756021225740103 0.0 0.06269958330638772 -0.021613061400027694 0.0 -0.11172817284907811 -0.0029350284560111864 0.0 -0.02649601404207985 0.009603800900163054 0.0 0.04526792747392622 -0.018191703770167513 0.0 -0.06804387708329897 -0.008554817171917407 0.0 0.41819374529164893 -0.04941451145640824 0.0 -0.04806622055211596 -0.011333781036176369 0.0 0.11241993702570602 0.029671952724720195 0.0 -0.08260324263519299 0.00520656766240071 0.0 -0.07324140674333021 -0.006941147366436609 0.0 -0.09978238428439905 5.995125040869063e-05 0.0 0.03922862166880651 0.016709300330220823 0.0 1.216080276749836 0.10323577468333783 0.0 0.32726395438514494 0.037096439124587356 0.0 0.3038446712974168 -0.04524155697979827 0.0 0.2556632969175408 -0.010244517172531449 0.0 0.7081476650283084 -0.020678021736948108 0.0 0.30593673239222285 0.0056201094946891385 0.0 1.1765105697900824 0.052931183633565394 0.0 0.8886592290460552 0.06090145049102017 0.0 0.9290659629576977 -0.08307624136505748 0.0 -0.04795068398121466 -0.004193885147154254 0.0 -0.05902218172050715 -0.003933833634179564 0.0 -0.11923457269725864 -0.001757274605096671 0.0 -0.04593270466194749 0.0038495004673583834 0.0 -0.07978872555718904 -0.004537668415735262 0.0 0.3255515454858177 -0.03898790914682072 0.0 1.2580687264963786 -0.0936384253672527 0.0 0.6259188589390681 -0.061998306098351164 0.0 0.8933859139919643 -0.08614416466567093 0.0 -0.0290938214341459 0.012238123982060088 0.0 0.060173883976329584 -0.023503324662480264 0.0 -0.008270462764395874 -0.015494589309005644 0.0 0.20739313669350676 -0.03911648242879573 0.0 -0.017109291065395126 -0.015167143594104732 0.0 1.2534750420546745 0.10616845424767192 0.0 -0.06725172523524975 -0.001661912468582726 0.0 -0.015005608474063991 0.010323198799906216 0.0 -0.05188516269730512 -0.0004332315753579947 0.0 0.053438018446673 -0.021957419275539503 0.0 0.33686480925279755 0.024541306126953256 0.0 0.687762341476343 -0.0704317270135125 0.0 0.5068150686037131 -0.06021440175422583 0.0 0.7868570581864615 -0.06861757503043905 0.0 0.26403190113060876 -0.03888237080306438 0.0 0.8185498170748496 -0.08781486550316642 0.0 1.1663247746635859 -0.09123831699192322 0.0 1.0674526773739508 -0.08388114061429937 0.0 1.0407574554593824 -0.07537690901723444 0.0 0.591387934605975 -0.06980908229693615 0.0 0.5026341411550569 -0.06480863473518399 0.0 0.3894843686977112 -0.05755609944213957 0.0 0.3650511547161329 -0.05437843392616922 0.0 0.14314865715774713 -0.03345958691601473 0.0 0.7858174273062529 -0.0882952742264858 0.0 0.25928531706684177 0.014680753327908368 0.0 0.606453513440959 0.03780831712515941 0.0 0.06664880178800912 0.005908496803301159 0.0 0.17114577169531653 0.017619733385236407 0.0 -0.07059910209353498 0.00014172227950449585 0.0 1.332729144355274 -0.024419413719522567 0.0 1.2179292479034163 0.041098744799633845 0.0 1.3551858554139673 -0.012107770529748983 0.0 1.3266563873236217 -0.06327139229636973 0.0 0.16781690212827158 -0.03620222018242379 0.0 0.3554395613099637 -0.05456623942473668 0.0 0.5582865353905446 0.04663053033444257 0.0 0.08683497605535491 0.015240050842489803 0.0 1.3082171797926812 0.004061098106498438 0.0 1.348248889109953 -0.033033112997746826 0.0 0.51759710947184 0.06816280026089315 0.0 1.327035696099596 -0.07675814444067365 0.0 0.5882213407353528 0.04318024203512115 0.0 1.2823381547991357 0.0718288196334553 0.0 0.33229921747892904 0.03335251316681159 0.0 0.7036347747404406 0.06354549401767796 0.0 1.3347029336513574 0.02412681707239952 0.0 1.231233046462673 -0.024241050579787062 0.0 1.3176643027374706 -0.08675245036170312 0.0 0.8245373076153637 0.06123462826691923 0.0 1.0474670610888221 0.07878569817765993 0.0 1.106711296591652 0.07222669152992602 0.0 1.2667825391564176 0.09841237176846225 0.0 1.128337499084085 0.09709765151454454 0.0 0.9744610105787114 0.08104770218980976 0.0 0.6683087864085898 0.06701015968200626 0.0 1.2732386118475496 -0.0899267588015563 0.0 0.0 0.0 0.0 1.3079607665333035 0.057746621862213895 0.0 0.9165857575094953 0.08928493699673279 0.0 0.32495153484536726 0.04151349803249746 0.0 1.3159038298683159 0.07152749539931992 0.0 0.8989674076253508 0.08505938188358053 0.0 1.2706256813371637 0.09114699352058725 0.0 0.5977164462011534 0.06583918675418177 0.0 1.261911737216459 0.10357745991200826 0.0 0.5489097780071315 0.06770645094016879 0.0 0.2556203856359082 0.039664496345969524 0.0 1.1464612044554716 0.10142556543824256 0.0 0.6610317233765173 0.07435348360632422 0.0 1.072244146341023 0.10325994911684303 0.0 0.8442857156857324 0.0902310258241096 0.0 0.7755107146122903 0.08845457429209055 0.0 1.1954169673946353 0.0885279907440142 0.0 1.1158158651202805 0.09165490227136466 0.0 1.306257545003179 0.08179415590534048 0.0 0.1554764019869005 0.028281328601613545 0.0 1.1522662081420305 0.07915746454473375 0.0 1.2164142891478287 0.10648020928765127 0.0 1.1572572886052355 0.10747324371399361 0.0 1.2336544638975528 0.10745951204186116 0.0 1.2437400828429597 0.10840589251804923 0.0 1.291257092219432 0.08700129128246545 0.0 1.1832881456229938 0.06840919478844325 0.0 0.9449922114373459 0.10145025460753108 0.0 1.2293225401706895 0.09267376442778488 0.0 1.279108044981247 0.09066522294634854 0.0 1.045244049915371 0.06526953348676182 0.0 1.1623741852861906 0.10974207983908967 0.0 1.0792750374109932 0.10834162979922357 0.0 1.0596061204930387 0.1061515477274591 0.0 1.2324115979574608 0.0970730053243647 0.0 0.0 0.0 0.0 0.6445057722247325 -0.005571653040113101 0.0 1.077847052358726 0.43425706089261834 0.0 1.1669181770616692 0.4222669039847385 0.0 1.082236222751967 -0.426770723049148 0.0 0.8655925836617732 -0.22701901024888085 0.0 0.9788756464376814 -0.2555134342511746 0.0 0.8923673371009536 -0.08498476580896627 0.0 1.2228254862534926 -0.052274805249718274 0.0 1.0814339328793254 -0.0639956795359164 0.0 1.1987264980409218 -0.10445974090057221 0.0 1.265185913506613 -0.0845509585606227 0.0 1.3153648933444546 -0.05369965320489817 0.0 -0.08315674187435453 -0.0024996489420991857 0.0 -0.05033658990357992 0.007739555528217719 0.0 0.0007894514189821465 0.010082760512457732 0.0 0.0006846725032842928 0.012104314220256164 0.0 0.14672850633446913 0.026870556609501203 0.0 -0.05707744902375977 0.008265253516097814 0.0 0.06118411638013232 0.02195687592877059 0.0 0.21678818232686548 0.03714564440479135 0.0 0.08482489141645914 0.03820812582168383 0.0 -0.036065409148104674 0.015089969758930353 0.0 1.0348454671438447 0.1607710835786419 0.0 -0.07028729415602873 0.004304757093539344 0.0 1.2547586375025157 -0.1005872252768159 0.0 1.1422194726249377 -0.09833098177938848 0.0 0.9510943620669683 -0.09262396219286083 0.0 1.1042874524097737 -0.10215935202403524 0.0 1.2395456786860144 -0.10615722655267898 0.0 0.9135043821927165 -0.09543467616288898 0.0 1.2471263748932409 -0.10647503619055045 0.0 1.0781029662046981 -0.10475434602511643 0.0 1.133320527812398 -0.10479242109942627 0.0 0.8640553970849695 -0.09454425685720515 0.0 0.90770453589824 -0.09707438747277779 0.0 0.6266484422417348 -0.0776546987649831 0.0 1.1045487234715619 -0.10712100258251404 0.0 1.233315984502756 -0.10582355216863325 0.0 1.0691134995693365 -0.10477249761447836 0.0 1.1679615737226388 -0.08565103840444678 0.0 1.1932277974052334 -0.10809251232673102 0.0 0.6824461145203671 -0.08128952964155006 0.0 1.141139839714892 -0.10514422943066659 0.0 0.9394824320447877 -0.0980432781