<?xml version="1.0"?>
<VTKFile type="UnstructuredGrid"  version="0.1"  >
<UnstructuredGrid>
<Piece  NumberOfPoints="1289" NumberOfCells="2413">
<Points>
<DataArray  type="Float64"  NumberOfComponents="3"  format="ascii">0 0 0  0 0.41 0  2.2 0.41 0  2.2 0 0  0.1 0.1 0  0.1 0.3 0  0.8 0.3 0  0.8 0.1 0  0.25 0.2 0  0.248976 0.210065 0  0.245948 0.219718 0  0.241038 0.228563 0  0.234448 0.23624 0  0.226448 0.242432 0  0.217365 0.246888 0  0.207571 0.249423 0  0.197468 0.249936 0  0.187467 0.248404 0  0.17798 0.24489 0  0.169395 0.239539 0  0.162062 0.232569 0  0.156283 0.224265 0  0.152293 0.214968 0  0.150257 0.205058 0  0.150257 0.194942 0  0.152293 0.185032 0  0.156283 0.175735 0  0.162062 0.167431 0  0.169395 0.160461 0  0.17798 0.15511 0  0.187467 0.151596 0  0.197468 0.150064 0  0.207571 0.150577 0  0.217365 0.153112 0  0.226448 0.157568 0  0.234448 0.16376 0  0.241038 0.171437 0  0.245948 0.180282 0  0.248976 0.189935 0  1.1 0 0  1.1 0.41 0  0.1 0.2 0  0.45 0.1 0  0.45 0.3 0  0.55 0 0  0.275 0.1 0  0.275 0.3 0  0.275 0 0  0.55 0.41 0  0 0.205 0  0.825 0 0  0.825 0.41 0  0.275 0.41 0  0.1 0.15 0  0.1875 0.1 0  0.1 0.25 0  0.1875 0.3 0  0.132322 0.2 0  0.241426 0.253518 0  0.241426 0.146482 0  0.264574 0.17974 0  0.264574 0.22026 0  0.138434 0.187348 0  0.153372 0.150948 0  0.148413 0.164094 0  0.176495 0.136535 0  0.22768 0.143571 0  0.138434 0.212652 0  0.148413 0.235906 0  0.176495 0.263465 0  0.22768 0.256429 0  0.23125 0.3 0  0.24769 0.24094 0  0.23125 0.1 0  0.24769 0.15906 0  0.26253 0.193641 0  0.190482 0.137872 0  0.166753 0.146661 0  0.157737 0.244461 0  0.190482 0.262128 0  0.203107 0.261264 0  0.253635 0.22977 0  0.203107 0.138736 0  0.253635 0.17023 0  0.261028 0.206206 0  0.167707 0.251809 0  0.143629 0.224191 0  0.215302 0.2591 0  0.270465 0.245894 0  0.215302 0.1409 0  0.270465 0.154106 0  0.284052 0.202587 0  0.14375 0.3 0  0.209375 0.3 0  0.225966 0.278501 0  0.209375 0.1 0  0.225966 0.121499 0  0.211613 0.273759 0  0.211613 0.126241 0  0.143629 0.175809 0  0.1 0.175 0  0.133484 0.164832 0  0.144491 0.249539 0  0.1 0.225 0  0.133484 0.235168 0  0.3625 0.3 0  0.25691 0.253381 0  0.25691 0.146619 0  0.277205 0.188698 0  0.184724 0.275712 0  0.237372 0.268285 0  0.184724 0.124288 0  0.237372 0.131715 0  0.197578 0.273149 0  0.193656 0.286994 0  0.197578 0.126851 0  0.193656 0.113006 0  0.122953 0.187671 0  0.118362 0.153758 0  0.155372 0.258107 0  0.122953 0.212329 0  0.118362 0.246242 0  0.276394 0.27264 0  0.276394 0.12736 0  0.280965 0.170013 0  0.253125 0.3 0  0.14375 0.1 0  0.253125 0.1 0  0.269489 0.26014 0  0.269489 0.13986 0  0.303639 0.184297 0  0.165625 0.3 0  0.134742 0.273113 0  0.257831 0.274737 0  0.255279 0.128499 0  0.3625 0.1 0  0.165625 0.1 0  0.162031 0.132368 0  0.134955 0.126405 0  0.149334 0.125568 0  0.142936 0.139597 0  0.12695 0.140259 0  0.242514 0.285501 0  0.242514 0.114499 0  0.1 0.125 0  0.117483 0.12555 0  0.11154 0.139776 0  0.121875 0.1 0  0.109143 0.1125 0  0.126805 0.114 0  0.220313 0.29129 0  0.351562 0.287369 0  0.207222 0.2866 0  0.220312 0.10871 0  0.1375 0 0  0.20625 0 0  0.207222 0.1134 0  0.11722 0.17118 0  0.1 0.1625 0  0.0778409 0.16875 0  0.0862762 0.15625 0  0 0.15375 0  0 0.1025 0  0.11722 0.22882 0  0.1 0.2375 0  0 0.3075 0  0.0862762 0.23125 0  0.0598995 0.222547 0  0.0860223 0.2125 0  0.289584 0.181469 0  0.300267 0.16446 0  0.163832 0.269071 0  0.149597 0.273325 0  0.1 0.275 0  0.268498 0.285953 0  0.31875 0.3 0  0.294154 0.254672 0  0.296875 0.3 0  0.293558 0.271845 0  0.285095 0.286799 0  0.324298 0.264316 0  0.307866 0.263745 0  0.317093 0.234901 0  0.315485 0.281219 0  0.316547 0.250625 0  0.344693 0.243731 0  0.331592 0.251147 0  0.35129 0.270663 0  0.338689 0.263683 0  0.340625 0.3 0  0.249849 0.264383 0  0.265097 0.11422 0  0.284688 0.156136 0  0.242188 0.324017 0  0.0856613 0.2625 0  0.132812 0.0612217 0  0.264062 0.0612217 0  0.198437 0.07598340000000001 0  0.0860223 0.1375 0  0.0794526 0.191089 0  0.285228 0.140397 0  0.298655 0.148737 0  0.31875 0.1 0  0.327335 0.15374 0  0.296875 0.1 0  0.312289 0.155283 0  0.313348 0.135607 0  0.321802 0.173916 0  0.298433 0.134116 0  0.112124 0.2625 0  0.127526 0.259083 0  0.121875 0.3 0  0.0682687 0.241503 0  0.1 0.2875 0  0.117762 0.28125 0  0.107813 0.3 0  0.103906 0.313849 0  0.0778409 0.28125 0  0.1375 0.41 0  0.0862762 0.29375 0  0.08886860000000001 0.24375 0  0.307812 0.338778 0  0.307812 0.292227 0  0.33216 0.279164 0  0.387888 0.266414 0  0.264063 0.31948 0  0.110937 0.07598340000000001 0  0.242188 0.07598340000000001 0  0.319914 0.11839 0  0.340625 0.1 0  0.334448 0.133793 0  0.329687 0.108539 0  0.346259 0.118491 0  0.360334 0.173636 0  0.327539 0.205033 0  0.132812 0.288712 0  0.362436 0.278836 0  0.368105 0.259418 0  0.4125 0.41 0  0.329687 0.324017 0  0.329687 0.292306 0  0.285938 0.318952 0  0.417187 0.338778 0  0.324481 0.14148 0  0.351562 0.106771 0  0.40625 0.1 0  0.341028 0.168342 0  0.319221 0.190479 0  0.335292 0.184501 0  0.305563 0.20794 0  0.220313 0.31948 0  0.132812 0.332772 0  0.0865876 0.311259 0  0.0598995 0.302453 0  0.0906541 0.343255 0  0.353543 0.255837 0  0.36574 0.237633 0  0.405007 0.254279 0  0.275795 0.352123 0  0.4125 0 0  0.35493 0.137394 0  0.366563 0.120618 0  0.35917 0.205246 0  0.198438 0.318952 0  0.0626109 0.263892 0  0.40625 0.3 0  0.354809 0.155936 0  0.386512 0.146872 0  0.373101 0.159939 0  0.384375 0.1 0  0.343394 0.19929 0  0.350682 0.185683 0  0.368101 0.189748 0  0.344016 0.221511 0  0.391108 0.213329 0  0.376279 0.204783 0  0.398843 0.182768 0  0.375804 0.222746 0  0.390665 0.196958 0  0.394004 0.23518 0  0.359883 0.222828 0  0.419908 0.204359 0  0.404243 0.204783 0  0.412615 0.224526 0  0.20625 0.41 0  0.165625 0.325257 0  0.0347982 0.244954 0  0.379558 0.247154 0  0.34165 0.147603 0  0.372264 0.136992 0  0.388988 0.121989 0  0.373437 0.108554 0  0.351562 0.31948 0  0.391367 0.16527 0  0.399572 0.223324 0  0.452011 0.227371 0  0.40877 0.239392 0  0.431491 0.237337 0  0.421224 0.250459 0  0.449619 0.262098 0  0.418865 0.276779 0  0.437063 0.252274 0  0.415673 0.263227 0  0.430988 0.266772 0  0.402767 0.273419 0  0.452967 0.244883 0  0.428125 0.3 0  0.408502 0.286186 0  0.384375 0.3 0  0.392267 0.285807 0  0.465927 0.219339 0  0.43489 0.283846 0  0.376424 0.286289 0  0.625 0.3 0  0.473533 0.205186 0  0.461713 0.255517 0  0.5375 0.3 0  0.465725 0.235405 0  0.44631 0.201425 0  0.471875 0.3 0  0.494307 0.227729 0  0.459448 0.206736 0  0.462294 0.180792 0  0.478933 0.227536 0  0.486793 0.21381 0  0.486322 0.251373 0  0.50065 0.215318 0  0.54005 0.175389 0  0.474633 0.189893 0  0.512916 0.208697 0  0.49531 0.199967 0  0.475889 0.175275 0  0.625 0.1 0  0.459311 0.153933 0  0.513645 0.242704 0  0.392892 0.248539 0  0.374815 0.271913 0  0.365974 0.14871 0  0.395312 0.109184 0  0.417061 0.123981 0  0.483196 0.277003 0  0.381967 0.179632 0  0.429898 0.219374 0  0.433473 0.206165 0  0.43149 0.181038 0  0.444208 0.215487 0  0.472985 0.247309 0  0.49375 0.3 0  0.475579 0.262714 0  0.49916 0.274293 0  0.501175 0.184809 0  0.514164 0.225681 0  0.543648 0.214977 0  0.5341630000000001 0.23481 0  0.527396 0.216171 0  0.5375 0.1 0  0.534548 0.202315 0  0.561545 0.192513 0  0.5494289999999999 0.201221 0  0.570923 0.218346 0  0.412582 0.149833 0  0.489327 0.264745 0  0.502439 0.254775 0  0.462391 0.271166 0  0.496775 0.241732 0  0.5294410000000001 0.268606 0  0.482812 0.291099 0  0.46879 0.285038 0  0.452663 0.284065 0  0.51789 0.257882 0  0.53408 0.252026 0  0.560142 0.243543 0  0.545708 0.243474 0  0.547532 0.229019 0  0.55282 0.265323 0  0.398971 0.153424 0  0.400349 0.135684 0  0.410135 0.168145 0  0.428823 0.161323 0  0.415266 0.183779 0  0.329687 0.0810483 0  0.395312 0.0612217 0  0.373437 0.318952 0  0.439062 0.324017 0  0.561816 0.229354 0  0.585029 0.239287 0  0.431827 0.139854 0  0.446796 0.168929 0  0.351562 0.07598340000000001 0  0.395313 0.318944 0  0.54337 0.150762 0  0.460937 0.31948 0  0.418412 0.137529 0  0.428125 0.1 0  0.442783 0.152332 0  0.450742 0.134294 0  0.373437 0.0805201 0  0.384383 0.342558 0  0.482812 0.318952 0  0.429239 0.127457 0  0.444274 0.117405 0  0.426548 0.113815 0  0.49375 0.1 0  0.488954 0.113984 0  0.457973 0.121842 0  0.471621 0.137346 0  0.515625 0.325257 0  0.48125 0.41 0  0.417187 0.07598340000000001 0  0.496363 0.126778 0  0.479043 0.155715 0  0.439062 0.0805201 0  0.481795 0.126919 0  0.471875 0.1 0  0.489227 0.142159 0  0.515625 0.1 0  0.520062 0.147117 0  0.501244 0.161791 0  0.505431 0.112984 0  0.505344 0.14029 0  0.526563 0.119081 0  0.5181750000000001 0.131908 0  0.539868 0.136937 0  0.460937 0.108383 0  0.474242 0.114415 0  0.460937 0.0810483 0  0.487841 0.167168 0  0.526563 0.0612217 0  0.526563 0.106406 0  0.537619 0.112743 0  0.58125 0.1 0  0.559375 0.1 0  0.482812 0.08105569999999999 0  0.471883 0.0587655 0  0.570312 0.129396 0  0.548437 0.07598340000000001 0  0.504687 0.08105569999999999 0  0.49375 0.0470127 0  0.570312 0.112663 0  0.592798 0.12103 0  0.553986 0.12103 0  0.570312 0.0805201 0  0.48125 0 0  0.114787 0.2 0  0.160769 0.284765 0  0.175816 0.288361 0  0.162602 0.116048 0  0.154687 0.07598340000000001 0  0.176562 0.0805201 0  0.0598995 0.147547 0  0.307812 0.109924 0  0.291279 0.117157 0  0.278491 0.112989 0  0.285937 0.07598340000000001 0  0.307812 0.0805201 0  0.296928 0.196743 0  0.318141 0.218507 0  0.330208 0.227509 0  0.301397 0.225668 0  0.302706 0.241401 0  0.292574 0.21424 0  0.282762 0.230935 0  0.284351 0.244775 0  0.269553 0.23261 0  0.278572 0.217242 0  0.226924 0.342606 0  0.446928 0.185396 0  0.515625 0.3 0  0.504687 0.288879 0  0.515256 0.276534 0  0.529479 0.285328 0  0.58125 0.3 0  0.541969 0.272936 0  0.559375 0.3 0  0.556796 0.282529 0  0.543473 0.287206 0  0.581429 0.267774 0  0.566728 0.271171 0  0.570869 0.255585 0  0.577404 0.283865 0  0.603125 0.3 0  0.597531 0.28035 0  0.570312 0.338778 0  0.592188 0.292492 0  0.603513 0.256094 0  0.614063 0.286265 0  0.610329 0.27064 0  0.632708 0.251285 0  0.657223 0.261594 0  0.618789 0.257807 0  0.614188 0.22987 0  0.630935 0.265614 
[...]
<PointData  Vectors="v"> 
	<DataArray  type="Float64"  Name="v"  NumberOfComponents="3" format="ascii">
0.0 0.0 0.0 0.0 0.0 0.0 0.0 0.0 0.0 0.0 0.0 0.0 0.7962320771866741 -0.19598723707697188 0.0 0.8404063608275542 0.20776337619844804 0.0 1.1685549444854226 -0.06011537864915863 0.0 1.1367675161878024 0.05527043509847796 0.0 0.0 0.0 0.0 0.0 0.0 0.0 0.0 0.0 0.0 0.0 0.0 0.0 0.0008687924252725527 0.0008182758274643428 0.0 0.0007784033961469041 0.001212615937068638 0.0 0.0006165633206170561 0.0010799950126728632 0.0 0.0 0.0 0.0 0.0 0.0 0.0 0.0 0.0 0.0 0.0 0.0 0.0 0.0 0.0 0.0 0.0 0.0 0.0 0.0 0.0 0.0 0.0 0.0 0.0 0.0 0.0 0.0 0.0 0.0 0.0 0.0 0.0 0.0 0.0 0.0 0.0 0.0 0.0 0.0 0.0 0.0 0.0 0.0 0.0 0.0 0.0 0.0 0.0 0.0 0.0 0.0 0.0 0.0 0.0 0.0003473280932880954 -0.0006051517361160679 0.0 -0.00015243574272087344 0.00039903615438854044 0.0 0.0008294747619563551 -0.0007618417182346317 0.0 0.0 0.0 0.0 0.0 0.0 0.0 0.0 0.0 0.0 0.0 0.0 0.0 0.0 0.0 0.0 0.7613284173305155 -0.0012914343070922582 0.0 1.2757223847199828 0.08288294076408918 0.0 1.2660654273585548 -0.07740853244078066 0.0 0.0 0.0 0.0 1.353627689758076 -0.13298761755871583 0.0 1.3582012736868097 0.15483949360499333 0.0 0.0 0.0 0.0 0.0 0.0 0.0 1.0 0.0 0.0 0.0 0.0 0.0 0.0 0.0 0.0 0.0 0.0 0.0 0.8425951418687474 -0.23189362621227122 0.0 1.1514008400852083 -0.344343371272236 0.0 0.8637809691272477 0.22929974469241637 0.0 1.1662802841111108 0.35408525594169704 0.0 0.4282351651126179 -0.003981422033812158 0.0 0.16545892027099973 0.06259130076811184 0.0 0.16943287185332093 -0.06079182638581462 0.0 -0.027504470863382487 -0.038303218927648604 0.0 -0.02584474620461444 0.03631524349326283 0.0 0.33437951528908666 -0.27985591119173153 0.0 0.8578927508698106 -0.6734711203287117 0.0 0.6399953194578349 -0.6881613558850236 0.0 1.206132945083712 -0.6133078425718218 0.0 0.41592199343684066 -0.06900263832825394 0.0 0.33044554981383156 0.26873490244180337 0.0 0.6428295930466509 0.6693150286746459 0.0 1.1851563456574155 0.6153769494450778 0.0 0.4076332638818667 0.07163762427548585 0.0 1.3132388277392584 0.2609175984329372 0.0 0.3233160133559877 0.2517843397487173 0.0 1.302646416043029 -0.24051404073747001 0.0 0.3145681047012841 -0.2397209544021434 0.0 -0.03347546333761593 -0.016926987070685903 0.0 1.1248452794978259 -0.3987571139865245 0.0 1.0931911025530567 -0.7243456900963453 0.0 0.8520570819151968 0.7707393699595056 0.0 1.1314060285675787 0.39955304347302634 0.0 0.7594298081421194 0.18599178959330606 0.0 0.10877842435058062 0.05143133383440499 0.0 0.7692801062085075 -0.1819287324709752 0.0 0.11115056007332558 -0.0499297443178425 0.0 -0.02952212702457004 0.019096608675372398 0.0 1.0275160967646813 0.7188809727051149 0.0 0.4423786209798642 0.5291857689722201 0.0 0.45782338264356987 0.1775463223262241 0.0 0.2712857850940211 0.0690474676248533 0.0 0.46426668173470576 -0.1738287229730729 0.0 0.27697042011450745 -0.06466316866578249 0.0 -0.07505771076461021 0.002302631825167538 0.0 0.9654784450615471 0.3174074586049368 0.0 1.2605559361491638 0.31318819898447714 0.0 1.2451339620800392 0.2888456726373581 0.0 1.2348395344375154 -0.30767863304488774 0.0 1.2478207569403679 -0.2810563128008942 0.0 1.2201923720985528 0.3310204135714394 0.0 1.2260942372820287 -0.3226840118141934 0.0 0.44289037131377607 -0.5445810289837949 0.0 0.8020171270084255 -0.13963505777936389 0.0 0.6715106942771552 -0.41970880684002343 0.0 0.8773677425699917 0.5938393221512984 0.0 0.7993046235123318 0.14279973592748904 0.0 0.6764905430521191 0.4201427079823545 0.0 1.2927339834851144 -0.007243506621398892 0.0 0.2932448000103149 0.14427467613268055 0.0 0.2945344349519497 -0.13444839222050362 0.0 -0.05431963285259147 -0.012908626833316835 0.0 1.2650749725752441 0.4718111101421811 0.0 0.768681393341004 0.12090170699594156 0.0 1.2611072068942777 -0.47330688860281633 0.0 0.7891277218756042 -0.11555048878806969 0.0 1.2756138140926419 0.41805925394123605 0.0 1.2540043075261913 0.40112683576157093 0.0 1.2715540068365832 -0.4142647000979649 0.0 1.2446919662445797 -0.3811394301590492 0.0 0.5835275799380972 -0.16053495212697755 0.0 0.7964335530406612 -0.3318146944334682 0.0 1.0104343237547289 0.6037976081335615 0.0 0.5917495204027515 0.1506015519104163 0.0 0.8125603576572032 0.3317000662858199 0.0 0.7459176063168867 0.0808133619074335 0.0 0.7825372490309042 -0.07304181002005164 0.0 0.05216740645193259 -0.02204798568724594 0.0 1.3634545649705105 0.20746100356789884 0.0 0.9298202447487469 -0.3222322755655775 0.0 1.344569454299895 -0.19004702784668004 0.0 0.40930767173851895 0.09080136191660307 0.0 0.42697129774845427 -0.0782670185062171 0.0 -0.05453189958044813 -0.008157574425764428 0.0 1.0573617478473007 0.35400028596259286 0.0 0.9431603422937379 0.3914721785994579 0.0 0.9222090637641615 0.11238229204367951 0.0 0.8242575378271068 -0.08688130558001227 0.0 1.30681217681257 0.016594271689898365 0.0 1.0275071061588068 -0.3452025466515968 0.0 1.074481136445401 -0.5703333430832107 0.0 0.9301289199962212 -0.3893999302906571 0.0 0.997460740741999 -0.43865690278618147 0.0 0.9329257674392613 -0.5428334185297132 0.0 0.8655288724740391 -0.4065040436342245 0.0 1.2734455401985423 0.23290321903433317 0.0 1.271471083334032 -0.21958890347782065 0.0 0.8526546053757825 -0.2356332938446082 0.0 0.8790478771822205 -0.3099564255390161 0.0 0.8528937238739773 -0.2990486542328218 0.0 0.8514070910853558 -0.2564041948104611 0.0 0.8542098829949408 -0.2527824929442248 0.0 0.896270744962643 -0.3194701634509765 0.0 1.329231339418326 0.3155981853394763 0.0 1.0845983113527327 -0.0024808770137622832 0.0 1.314595955670196 0.36235994261537186 0.0 1.3213518332949907 -0.2960826620455049 0.0 0.0 0.0 0.0 0.0 0.0 0.0 1.2994319709390194 -0.3494911904702765 0.0 0.7142431084397666 -0.26732124934078144 0.0 0.8203908405050548 -0.2107674590137719 0.0 0.8711711860309295 -0.11075638798618517 0.0 0.8624403305882642 -0.16376894694627056 0.0 0.9375 0.0 0.0 0.7500000000000001 0.0 0.0 0.7224737675215638 0.2653033698255897 0.0 0.8240378757985756 0.20014483081707685 0.0 0.7499999999999999 0.0 0.0 0.8697170841612427 0.12782371739545126 0.0 0.9287125693997199 0.04283729347209043 0.0 0.8481118092258544 0.0450683033132155 0.0 -0.03486981998088703 -0.011576834658332959 0.0 0.09137254804204181 -0.017554184195858948 0.0 1.1150221331976258 0.554778911143866 0.0 1.0190176317469386 0.4731483490813546 0.0 0.8809730583513768 0.2454762986046929 0.0 1.2001006775391778 0.13905231628216463 0.0 1.328864426546631 0.05979302640209883 0.0 0.35197158848262566 0.03799932531360218 0.0 1.3561527843464458 0.1028714531612608 0.0 0.7139718601150337 0.05373124402761511 0.0 1.171184780778364 0.10021778676027152 0.0 0.5146296542336181 0.015801950363143736 0.0 0.4962458439614415 0.030020805709567347 0.0 0.0698068591595596 0.013370636207099674 0.0 0.9566968617291658 0.03450335358512358 0.0 0.25714283906956564 0.022127497359753306 0.0 0.16329012116986258 0.008437470755697769 0.0 0.2676700771761276 0.014572775707047644 0.0 0.6666846705538604 -0.004877777730621484 0.0 0.49838496798937937 0.006951373357356875 0.0 1.3157514390579796 0.019275372916049412 0.0 0.5424620122638704 0.06225521631418621 0.0 1.230217550899839 -0.1420020562673428 0.0 0.20192227803321977 -0.03755484711000277 0.0 1.2057895355023154 0.17355101577484364 0.0 0.8828248708728188 0.1797454892077961 0.0 0.7011193884224044 -0.16795706273058308 0.0 1.1155652961841875 -0.09422036482035796 0.0 1.0385435607191824 -0.22376638964778356 0.0 0.8637500557582898 -0.18265217079930013 0.0 0.875419236231229 -0.025594013980327075 0.0 0.43938552740146847 -0.04805652570793595 0.0 0.29035254738737964 -0.033049232490317944 0.0 1.3289417124863698 -0.041914904895237935 0.0 0.20840872567005328 -0.0135025020099359 0.0 1.3554331789231633 -0.08636535337278721 0.0 0.1913933553302429 -0.019059595568447937 0.0 0.535499885031246 -0.015681579934835883 0.0 -0.0015841709927752602 -0.011280014942285784 0.0 0.5721979445505878 -0.031434170003169525 0.0 0.8788934906752426 0.2971599838091511 0.0 0.8795629257621571 0.4107758743668527 0.0 0.8850957391579438 0.27033773745662887 0.0 0.9122197751740192 0.10985280219628474 0.0 0.8651803444005023 0.22329902146807928 0.0 0.9047300819771275 0.30372351901217487 0.0 0.8572394876028049 0.2335247454301791 0.0 0.8020285803492102 0.18338422408561805 0.0 0.867056193845724 0.16153460598031358 0.0 0.0 0.0 0.0 0.841519784042734 0.1766983311780299 0.0 0.8706566320893987 0.17102844280619048 0.0 1.213113014739548 0.04974959334696061 0.0 1.2376169207089343 0.06494192307809185 0.0 0.890276616036752 0.013191801746921755 0.0 0.5940269125364952 -0.026084263760032003 0.0 1.2798682494170999 0.14708209436352648 0.0 0.7176152575666992 -0.17372562352198645 0.0 1.1780052906743086 -0.16455659420217636 0.0 0.9986126820816636 -0.01980471694299083 0.0 1.3235681827401327 -0.007761402133324693 0.0 0.5854001322925342 -0.0001556795461183542 0.0 1.220437034004876 -0.012617858271866768 0.0 0.9834304155708825 0.009182260550381299 0.0 -0.004527092127337942 -0.007187874264453938 0.0 -0.09615681198736901 0.0010158222420720258 0.0 0.9448609545596081 0.341230641670358 0.0 0.8778231174385807 -0.01848836458163619 0.0 0.427486618641346 -0.00827308838666394 0.0 0.0 0.0 0.0 1.3286374124425526 0.03747506926189635 0.0 1.2126281350302106 0.024917867976183772 0.0 1.317235752010989 0.11458087767679317 0.0 1.2523402200016185 -0.04434633845874089 0.0 0.41344771183201284 -0.013794841028338067 0.0 1.2283086050048888 0.010459858516437097 0.0 1.2912362000447202 0.0568131066063837 0.0 0.04100762299442388 -0.009920782549665915 0.0 -0.0824963093200924 -0.005250426990453448 0.0 -0.06766510879419613 -0.007608633416604088 0.0 -0.08116892776907343 0.0029327300303543828 0.0 1.1858036683875661 0.2197158164962835 0.0 0.7774501504663766 0.19847397410909223 0.0 0.7779152649578754 0.15423131762098755 0.0 0.7857377487806018 0.1069077689951008 0.0 0.6205750386727876 0.11098044874179418 0.0 0.3529408629199488 0.0013622406066883595 0.0 0.09318978228026448 0.0037175244854146345 0.0 0.36459237818664186 -0.020804706154096426 0.0 1.0719552473518728 0.07672125429410515 0.0 0.0 0.0 0.0 0.5197805565534162 0.011340933490832567 0.0 0.9318324055042256 0.029139302591932145 0.0 -0.10944100078668663 0.00037615802596349955 0.0 1.0970093514463946 0.2670198810772636 0.0 0.9003341022431004 0.11239677782829775 0.0 1.280253068814702 -0.049596630250054605 0.0 0.18667697288375784 -0.0037803198304948394 0.0 0.3587718637741212 0.017641670222868423 0.0 0.14304580594952118 -2.7674998022218287e-05 0.0 1.3029793566938441 0.03919623657697246 0.0 -0.1061353845777676 -0.0017536961602297911 0.0 -0.07752852032349979 -0.006706445218784866 0.0 -0.09778634745234936 -0.0047946959403982825 0.0 -0.04361867580239926 0.006856017552669845 0.0 -0.09568564548226668 0.0007425380568312659 0.0 -0.115936073132267 -0.00022567912037047558 0.0 -0.0668495865105397 -0.00236842012661923 0.0 -0.041540416230985186 0.0032030845531860635 0.0 -0.11974616908396475 -0.002354732037117407 0.0 0.07500978576157344 -0.0022610851970403393 0.0 -0.03894571688160246 0.005481455167037134 0.0 -0.12321557821603767 -0.0015191732976073224 0.0 -0.12187578322890384 -0.0011021703245064822 0.0 -0.02405217774572525 -0.002782739171858746 0.0 0.0 0.0 0.0 0.9464167810138567 0.2554514203817019 0.0 0.9513523448101141 0.04010370217494114 0.0 0.22463408649092387 -0.004589703266588235 0.0 0.3085295573432021 -0.0045606548382219935 0.0 0.5442311342866456 0.02082647791167293 0.0 0.9122705395775709 0.04289707844579437 0.0 1.192052464538634 0.03449463788018083 0.0 1.3536783589381343 0.014615010785056837 0.0 0.08805986350102454 0.001967237549710736 0.0 -0.03615057212211868 -0.0002258156419295564 0.0 0.022156883008925134 -0.012025331394687904 0.0 0.1350403710434996 -0.009044243394127027 0.0 0.12510255485537974 -0.014165671395908965 0.0 0.31506284919136424 -0.023568484480024156 0.0 0.5746940425041674 -0.051176574964598855 0.0 0.8592517865856317 -0.052633889386349865 0.0 0.3662358398256601 -0.032074582917698276 0.0 0.5548984613692544 -0.03609761060350394 0.0 0.6501379062302243 -0.0480260031659929 0.0 0.7699856520317652 -0.04127102224203627 0.0 0.2584976480978641 -0.028572396457497123 0.0 1.2726789223018367 -0.06471589766243319 0.0 1.0584176779654695 -0.05199361355755164 0.0 1.286484993144843 -0.029188155735591276 0.0 1.0489375245553907 -0.03987155483656407 0.0 -0.043320066933645575 -0.009161807419053772 0.0 1.0268617506295041 -0.0671664254300306 0.0 1.0601082796926444 -0.030209331318368227 0.0 1.226961517983279 -0.10316864244826984 0.0 -0.10910650582836985 -0.0025270765490384432 0.0 0.4597179800081072 -0.04591680579654902 0.0 1.2510572646553597 -0.10517555471251314 0.0 0.1308916670841574 -0.02207027876841082 0.0 -0.12223270490615586 -0.0012474983781704486 0.0 1.2612732930602921 -0.08732981603307163 0.0 0.06239090962329274 -0.021199565611081925 0.0 -0.11180480829642404 -0.002904858827147656 0.0 -0.02629500703157567 0.00966691022169494 0.0 0.04496741452728439 -0.017933850949875284 0.0 -0.068205327431124 -0.008228196651927219 0.0 0.4176778337888336 -0.049103429917438456 0.0 -0.04823735159271486 -0.01083415269736491 0.0 0.11254154686652845 0.030610715004729012 0.0 -0.08250352258464995 0.005384708460291717 0.0 -0.07333806148845251 -0.006264042337677374 0.0 -0.09979429388778306 0.0005062829631599526 0.0 0.039496796067132 0.01691945767876411 0.0 1.215434209322896 0.1028088701775964 0.0 0.3277003598630772 0.03714862259935295 0.0 0.303444066816145 -0.04465313902162161 0.0 0.25546749205455094 -0.010415139913960411 0.0 0.7080242390017446 -0.02075864690088925 0.0 0.30606947060039735 0.0054671307764585075 0.0 1.1766325060836236 0.05288413702821006 0.0 0.8888897641277307 0.06085216466515315 0.0 0.928587779609337 -0.08277311112267155 0.0 -0.04782287825947277 -0.004445427973160344 0.0 -0.05917878650537869 -0.004103019593242386 0.0 -0.11928092208915285 -0.0019269537567868323 0.0 -0.04576739768037659 0.0036730940093804964 0.0 -0.07992970627582947 -0.004637283073361153 0.0 0.32507872316132996 -0.03879023679979112 0.0 1.2579287418613816 -0.09335998386937068 0.0 0.6253812563394018 -0.061754866772545235 0.0 0.892906121299098 -0.08575842326046633 0.0 -0.02893850534604185 0.012758524152359108 0.0 0.05992914520010114 -0.022851772537228594 0.0 -0.008325144916177437 -0.014495673219677018 0.0 0.20715002828893656 -0.03832221216366435 0.0 -0.01723498340909256 -0.014326731728818093 0.0 1.2533355689167407 0.10645041988992633 0.0 -0.06726511092215665 -0.0007212921063254555 0.0 -0.015036439722229358 0.011489344008501143 0.0 -0.05188169696986503 0.0006583534195715265 0.0 0.05355712667907462 -0.02084303142672019 0.0 0.33715601431320497 0.024363539616645353 0.0 0.6872153125922198 -0.0700841496473081 0.0 0.5062984661275176 -0.059756689303934137 0.0 0.7863661590089353 -0.06843706740768858 0.0 0.26358835617178955 -0.038467585554695094 0.0 0.8181722901444598 -0.08728976883352281 0.0 1.1660253224799568 -0.09094886818518087 0.0 1.067060367809326 -0.0836440763961872 0.0 1.0403778955683243 -0.07521603444732804 0.0 0.5909072606805734 -0.06925786357436875 0.0 0.5022800894696197 -0.06414652766006863 0.0 0.38944625295437335 -0.05673773376945054 0.0 0.3648572330871792 -0.05358110417208313 0.0 0.14305983322321061 -0.03251592223781302 0.0 0.7856542277234364 -0.08774071067833068 0.0 0.25953134986546883 0.01447526434682576 0.0 0.606659751704274 0.037674534586561774 0.0 0.06687669996793594 0.005674768546516526 0.0 0.17145849009643094 0.017463248215077914 0.0 -0.07046785846048365 -9.795535570737852e-05 0.0 1.3327423424112752 -0.024434164790410395 0.0 1.2179746350157652 0.04111406151607734 0.0 1.3551128545219502 -0.012091083678807686 0.0 1.3266035683914577 -0.06314431395043842 0.0 0.16785116012194495 -0.035199463131321475 0.0 0.35577913487194807 -0.05375893371024624 0.0 0.558648014181371 0.04655949110378274 0.0 0.08712623518253568 0.01517275766496081 0.0 1.3082389908262153 0.004043936512855228 0.0 1.348161899149395 -0.03299118031313404 0.0 0.5178762994483839 0.06891257943491316 0.0 1.32698661253547 -0.07658065957058516 0.0 0.5885120743764443 0.04307368553520576 0.0 1.2825154641109529 0.07189241109539225 0.0 0.33269817460833867 0.033296959508391136 0.0 0.7040630773321469 0.06360713810420766 0.0 1.3347541996202894 0.02410992278503323 0.0 1.2311926759581362 -0.024215047259046982 0.0 1.3176701774085409 -0.08654169324940887 0.0 0.8248392792790838 0.0612128928185838 0.0 1.0477773485787987 0.07887529425184231 0.0 1.1069470578971967 0.07225171336154762 0.0 1.2669050589653903 0.09871407482876994 0.0 1.128657449307738 0.09743190199718871 0.0 0.9748480176754263 0.08120469119557111 0.0 0.6688241525448456 0.0672165885061427 0.0 1.2734141169197128 -0.08974689457881266 0.0 0.0 0.0 0.0 1.3080339945795978 0.057797054110783605 0.0 0.9170520118768256 0.08967560662723695 0.0 0.325411477234831 0.041753553275249294 0.0 1.3159969602842976 0.07163991839250486 0.0 0.8994439638608952 0.08536297706187905 0.0 1.2708083898012077 0.09137884785862811 0.0 0.5982585116352414 0.06618334816985709 0.0 1.2619147764416023 0.10390126993238008 0.0 0.5493670888047777 0.06830839575717079 0.0 0.2560237334462921 0.04015193530265055 0.0 1.1467106720919766 0.1018154887455882 0.0 0.6615611210226853 0.07482396142721402 0.0 1.0724722548975383 0.10371656835409508 0.0 0.8447336244576278 0.09075463016958951 0.0 0.7758348376755405 0.0890574098578282 0.0 1.195691089746617 0.08872394154759922 0.0 1.116156324151624 0.09191116054593418 0.0 1.3063229221237396 0.08196913233760647 0.0 0.15583193146426302 0.028613349541789415 0.0 1.1520331597643187 0.07928671635026215 0.0 1.2164392225504026 0.10685024848914444 0.0 1.1572868895299504 0.10786598370459513 0.0 1.2331914895996299 0.1074681706110576 0.0 1.2434330326484715 0.10858721425351467 0.0 1.2912491943215219 0.08721777645062417 0.0 1.1832644354519288 0.06853685451169177 0.0 0.9448889152825206 0.10186731298611813 0.0 1.228999097884468 0.09278043765972444 0.0 1.2790292091953324 0.09089403861257753 0.0 1.0450699738186706 0.0653863286107643 0.0 1.1620870995395929 0.10994995917859625 0.0 1.078800156748783 0.10843207969381542 0.0 1.0596100538272994 0.10656693288458803 0.0 1.2320009306619282 0.09706145727680097 0.0 0.0 0.0 0.0 0.6445059060905604 -0.005594854458828206 0.0 1.0778350213907004 0.43423516044420946 0.0 1.1669026981530704 0.4222427394554779 0.0 1.0822515344442052 -0.4267909120027394 0.0 0.8656058820155889 -0.22702904767523144 0.0 0.9788946673826375 -0.25552438455754084 0.0 0.8923687872330859 -0.08499283731936265 0.0 1.2228402934988225 -0.05228320293144969 0.0 1.0814882497337166 -0.06398702734396276 0.0 1.1987276194634686 -0.10444081224948187 0.0 1.2651961818266764 -0.08455288960057995 0.0 1.3153587515227096 -0.05370407886459104 0.0 -0.08316544203325578 -0.002582721030340144 0.0 -0.05034267713523587 0.007607720387292785 0.0 0.0007713580706114168 0.009937114708641705 0.0 0.000692435518224342 0.01200426721268245 0.0 0.14678625553227045 0.026787423589414053 0.0 -0.05708786700125204 0.008180873111210376 0.0 0.06123121862792868 0.02190930495580217 0.0 0.21687612063935285 0.03713040619114478 0.0 0.08490436931791417 0.03820858639812168 0.0 -0.03606649015662984 0.0150438642721912 0.0 1.0348218510384244 0.1607657847816102 0.0 -0.07014675683097335 0.004215102070030906 0.0 1.254728180256563 -0.10029342096713416 0.0 1.141954828760435 -0.09797437259498594 0.0 0.9507049862329133 -0.09219153366187974 0.0 1.1041250791194535 -0.10176592631574816 0.0 1.2399838313505587 -0.10615936344091864 0.0 0.9132844233112608 -0.09494696734480029 0.0 1.2474189272764158 -0.10632184570046477 0.0 1.0781584360490202 -0.10441782319691387 0.0 1.1333091371586559 -0.1044506393399766 0.0 0.8643110014546128 -0.0941833211683928 0.0 0.907763132625788 -0.09665190589873486 0.0 0.6267230357081315 -0.07702410481344919 0.0 1.1048518934691447 -0.10692983208529996 0.0 1.233892112724812 -0.1060119791004059 0.0 1.0696480048048862 -0.10473792478451595 0.0 1.1683058807592637 -0.08569805223836185 0.0 1.193734543956224 -0.10813292647503792 0.0 0.6830800845556333 -0.08094388243734964 0.0 1.1418347025204247 -0.10536319007197864 0.0 0.9401898620350899 -0.0980284