<?xml version="1.0"?>
<VTKFile type="UnstructuredGrid"  version="0.1"  >
<UnstructuredGrid>
<Piece  NumberOfPoints="1289" NumberOfCells="2413">
<Points>
<DataArray  type="Float64"  NumberOfComponents="3"  format="ascii">0 0 0  0 0.41 0  2.2 0.41 0  2.2 0 0  0.1 0.1 0  0.1 0.3 0  0.8 0.3 0  0.8 0.1 0  0.25 0.2 0  0.248976 0.210065 0  0.245948 0.219718 0  0.241038 0.228563 0  0.234448 0.23624 0  0.226448 0.242432 0  0.217365 0.246888 0  0.207571 0.249423 0  0.197468 0.249936 0  0.187467 0.248404 0  0.17798 0.24489 0  0.169395 0.239539 0  0.162062 0.232569 0  0.156283 0.224265 0  0.152293 0.214968 0  0.150257 0.205058 0  0.150257 0.194942 0  0.152293 0.185032 0  0.156283 0.175735 0  0.162062 0.167431 0  0.169395 0.160461 0  0.17798 0.15511 0  0.187467 0.151596 0  0.197468 0.150064 0  0.207571 0.150577 0  0.217365 0.153112 0  0.226448 0.157568 0  0.234448 0.16376 0  0.241038 0.171437 0  0.245948 0.180282 0  0.248976 0.189935 0  1.1 0 0  1.1 0.41 0  0.1 0.2 0  0.45 0.1 0  0.45 0.3 0  0.55 0 0  0.275 0.1 0  0.275 0.3 0  0.275 0 0  0.55 0.41 0  0 0.205 0  0.825 0 0  0.825 0.41 0  0.275 0.41 0  0.1 0.15 0  0.1875 0.1 0  0.1 0.25 0  0.1875 0.3 0  0.132322 0.2 0  0.241426 0.253518 0  0.241426 0.146482 0  0.264574 0.17974 0  0.264574 0.22026 0  0.138434 0.187348 0  0.153372 0.150948 0  0.148413 0.164094 0  0.176495 0.136535 0  0.22768 0.143571 0  0.138434 0.212652 0  0.148413 0.235906 0  0.176495 0.263465 0  0.22768 0.256429 0  0.23125 0.3 0  0.24769 0.24094 0  0.23125 0.1 0  0.24769 0.15906 0  0.26253 0.193641 0  0.190482 0.137872 0  0.166753 0.146661 0  0.157737 0.244461 0  0.190482 0.262128 0  0.203107 0.261264 0  0.253635 0.22977 0  0.203107 0.138736 0  0.253635 0.17023 0  0.261028 0.206206 0  0.167707 0.251809 0  0.143629 0.224191 0  0.215302 0.2591 0  0.270465 0.245894 0  0.215302 0.1409 0  0.270465 0.154106 0  0.284052 0.202587 0  0.14375 0.3 0  0.209375 0.3 0  0.225966 0.278501 0  0.209375 0.1 0  0.225966 0.121499 0  0.211613 0.273759 0  0.211613 0.126241 0  0.143629 0.175809 0  0.1 0.175 0  0.133484 0.164832 0  0.144491 0.249539 0  0.1 0.225 0  0.133484 0.235168 0  0.3625 0.3 0  0.25691 0.253381 0  0.25691 0.146619 0  0.277205 0.188698 0  0.184724 0.275712 0  0.237372 0.268285 0  0.184724 0.124288 0  0.237372 0.131715 0  0.197578 0.273149 0  0.193656 0.286994 0  0.197578 0.126851 0  0.193656 0.113006 0  0.122953 0.187671 0  0.118362 0.153758 0  0.155372 0.258107 0  0.122953 0.212329 0  0.118362 0.246242 0  0.276394 0.27264 0  0.276394 0.12736 0  0.280965 0.170013 0  0.253125 0.3 0  0.14375 0.1 0  0.253125 0.1 0  0.269489 0.26014 0  0.269489 0.13986 0  0.303639 0.184297 0  0.165625 0.3 0  0.134742 0.273113 0  0.257831 0.274737 0  0.255279 0.128499 0  0.3625 0.1 0  0.165625 0.1 0  0.162031 0.132368 0  0.134955 0.126405 0  0.149334 0.125568 0  0.142936 0.139597 0  0.12695 0.140259 0  0.242514 0.285501 0  0.242514 0.114499 0  0.1 0.125 0  0.117483 0.12555 0  0.11154 0.139776 0  0.121875 0.1 0  0.109143 0.1125 0  0.126805 0.114 0  0.220313 0.29129 0  0.351562 0.287369 0  0.207222 0.2866 0  0.220312 0.10871 0  0.1375 0 0  0.20625 0 0  0.207222 0.1134 0  0.11722 0.17118 0  0.1 0.1625 0  0.0778409 0.16875 0  0.0862762 0.15625 0  0 0.15375 0  0 0.1025 0  0.11722 0.22882 0  0.1 0.2375 0  0 0.3075 0  0.0862762 0.23125 0  0.0598995 0.222547 0  0.0860223 0.2125 0  0.289584 0.181469 0  0.300267 0.16446 0  0.163832 0.269071 0  0.149597 0.273325 0  0.1 0.275 0  0.268498 0.285953 0  0.31875 0.3 0  0.294154 0.254672 0  0.296875 0.3 0  0.293558 0.271845 0  0.285095 0.286799 0  0.324298 0.264316 0  0.307866 0.263745 0  0.317093 0.234901 0  0.315485 0.281219 0  0.316547 0.250625 0  0.344693 0.243731 0  0.331592 0.251147 0  0.35129 0.270663 0  0.338689 0.263683 0  0.340625 0.3 0  0.249849 0.264383 0  0.265097 0.11422 0  0.284688 0.156136 0  0.242188 0.324017 0  0.0856613 0.2625 0  0.132812 0.0612217 0  0.264062 0.0612217 0  0.198437 0.07598340000000001 0  0.0860223 0.1375 0  0.0794526 0.191089 0  0.285228 0.140397 0  0.298655 0.148737 0  0.31875 0.1 0  0.327335 0.15374 0  0.296875 0.1 0  0.312289 0.155283 0  0.313348 0.135607 0  0.321802 0.173916 0  0.298433 0.134116 0  0.112124 0.2625 0  0.127526 0.259083 0  0.121875 0.3 0  0.0682687 0.241503 0  0.1 0.2875 0  0.117762 0.28125 0  0.107813 0.3 0  0.103906 0.313849 0  0.0778409 0.28125 0  0.1375 0.41 0  0.0862762 0.29375 0  0.08886860000000001 0.24375 0  0.307812 0.338778 0  0.307812 0.292227 0  0.33216 0.279164 0  0.387888 0.266414 0  0.264063 0.31948 0  0.110937 0.07598340000000001 0  0.242188 0.07598340000000001 0  0.319914 0.11839 0  0.340625 0.1 0  0.334448 0.133793 0  0.329687 0.108539 0  0.346259 0.118491 0  0.360334 0.173636 0  0.327539 0.205033 0  0.132812 0.288712 0  0.362436 0.278836 0  0.368105 0.259418 0  0.4125 0.41 0  0.329687 0.324017 0  0.329687 0.292306 0  0.285938 0.318952 0  0.417187 0.338778 0  0.324481 0.14148 0  0.351562 0.106771 0  0.40625 0.1 0  0.341028 0.168342 0  0.319221 0.190479 0  0.335292 0.184501 0  0.305563 0.20794 0  0.220313 0.31948 0  0.132812 0.332772 0  0.0865876 0.311259 0  0.0598995 0.302453 0  0.0906541 0.343255 0  0.353543 0.255837 0  0.36574 0.237633 0  0.405007 0.254279 0  0.275795 0.352123 0  0.4125 0 0  0.35493 0.137394 0  0.366563 0.120618 0  0.35917 0.205246 0  0.198438 0.318952 0  0.0626109 0.263892 0  0.40625 0.3 0  0.354809 0.155936 0  0.386512 0.146872 0  0.373101 0.159939 0  0.384375 0.1 0  0.343394 0.19929 0  0.350682 0.185683 0  0.368101 0.189748 0  0.344016 0.221511 0  0.391108 0.213329 0  0.376279 0.204783 0  0.398843 0.182768 0  0.375804 0.222746 0  0.390665 0.196958 0  0.394004 0.23518 0  0.359883 0.222828 0  0.419908 0.204359 0  0.404243 0.204783 0  0.412615 0.224526 0  0.20625 0.41 0  0.165625 0.325257 0  0.0347982 0.244954 0  0.379558 0.247154 0  0.34165 0.147603 0  0.372264 0.136992 0  0.388988 0.121989 0  0.373437 0.108554 0  0.351562 0.31948 0  0.391367 0.16527 0  0.399572 0.223324 0  0.452011 0.227371 0  0.40877 0.239392 0  0.431491 0.237337 0  0.421224 0.250459 0  0.449619 0.262098 0  0.418865 0.276779 0  0.437063 0.252274 0  0.415673 0.263227 0  0.430988 0.266772 0  0.402767 0.273419 0  0.452967 0.244883 0  0.428125 0.3 0  0.408502 0.286186 0  0.384375 0.3 0  0.392267 0.285807 0  0.465927 0.219339 0  0.43489 0.283846 0  0.376424 0.286289 0  0.625 0.3 0  0.473533 0.205186 0  0.461713 0.255517 0  0.5375 0.3 0  0.465725 0.235405 0  0.44631 0.201425 0  0.471875 0.3 0  0.494307 0.227729 0  0.459448 0.206736 0  0.462294 0.180792 0  0.478933 0.227536 0  0.486793 0.21381 0  0.486322 0.251373 0  0.50065 0.215318 0  0.54005 0.175389 0  0.474633 0.189893 0  0.512916 0.208697 0  0.49531 0.199967 0  0.475889 0.175275 0  0.625 0.1 0  0.459311 0.153933 0  0.513645 0.242704 0  0.392892 0.248539 0  0.374815 0.271913 0  0.365974 0.14871 0  0.395312 0.109184 0  0.417061 0.123981 0  0.483196 0.277003 0  0.381967 0.179632 0  0.429898 0.219374 0  0.433473 0.206165 0  0.43149 0.181038 0  0.444208 0.215487 0  0.472985 0.247309 0  0.49375 0.3 0  0.475579 0.262714 0  0.49916 0.274293 0  0.501175 0.184809 0  0.514164 0.225681 0  0.543648 0.214977 0  0.5341630000000001 0.23481 0  0.527396 0.216171 0  0.5375 0.1 0  0.534548 0.202315 0  0.561545 0.192513 0  0.5494289999999999 0.201221 0  0.570923 0.218346 0  0.412582 0.149833 0  0.489327 0.264745 0  0.502439 0.254775 0  0.462391 0.271166 0  0.496775 0.241732 0  0.5294410000000001 0.268606 0  0.482812 0.291099 0  0.46879 0.285038 0  0.452663 0.284065 0  0.51789 0.257882 0  0.53408 0.252026 0  0.560142 0.243543 0  0.545708 0.243474 0  0.547532 0.229019 0  0.55282 0.265323 0  0.398971 0.153424 0  0.400349 0.135684 0  0.410135 0.168145 0  0.428823 0.161323 0  0.415266 0.183779 0  0.329687 0.0810483 0  0.395312 0.0612217 0  0.373437 0.318952 0  0.439062 0.324017 0  0.561816 0.229354 0  0.585029 0.239287 0  0.431827 0.139854 0  0.446796 0.168929 0  0.351562 0.07598340000000001 0  0.395313 0.318944 0  0.54337 0.150762 0  0.460937 0.31948 0  0.418412 0.137529 0  0.428125 0.1 0  0.442783 0.152332 0  0.450742 0.134294 0  0.373437 0.0805201 0  0.384383 0.342558 0  0.482812 0.318952 0  0.429239 0.127457 0  0.444274 0.117405 0  0.426548 0.113815 0  0.49375 0.1 0  0.488954 0.113984 0  0.457973 0.121842 0  0.471621 0.137346 0  0.515625 0.325257 0  0.48125 0.41 0  0.417187 0.07598340000000001 0  0.496363 0.126778 0  0.479043 0.155715 0  0.439062 0.0805201 0  0.481795 0.126919 0  0.471875 0.1 0  0.489227 0.142159 0  0.515625 0.1 0  0.520062 0.147117 0  0.501244 0.161791 0  0.505431 0.112984 0  0.505344 0.14029 0  0.526563 0.119081 0  0.5181750000000001 0.131908 0  0.539868 0.136937 0  0.460937 0.108383 0  0.474242 0.114415 0  0.460937 0.0810483 0  0.487841 0.167168 0  0.526563 0.0612217 0  0.526563 0.106406 0  0.537619 0.112743 0  0.58125 0.1 0  0.559375 0.1 0  0.482812 0.08105569999999999 0  0.471883 0.0587655 0  0.570312 0.129396 0  0.548437 0.07598340000000001 0  0.504687 0.08105569999999999 0  0.49375 0.0470127 0  0.570312 0.112663 0  0.592798 0.12103 0  0.553986 0.12103 0  0.570312 0.0805201 0  0.48125 0 0  0.114787 0.2 0  0.160769 0.284765 0  0.175816 0.288361 0  0.162602 0.116048 0  0.154687 0.07598340000000001 0  0.176562 0.0805201 0  0.0598995 0.147547 0  0.307812 0.109924 0  0.291279 0.117157 0  0.278491 0.112989 0  0.285937 0.07598340000000001 0  0.307812 0.0805201 0  0.296928 0.196743 0  0.318141 0.218507 0  0.330208 0.227509 0  0.301397 0.225668 0  0.302706 0.241401 0  0.292574 0.21424 0  0.282762 0.230935 0  0.284351 0.244775 0  0.269553 0.23261 0  0.278572 0.217242 0  0.226924 0.342606 0  0.446928 0.185396 0  0.515625 0.3 0  0.504687 0.288879 0  0.515256 0.276534 0  0.529479 0.285328 0  0.58125 0.3 0  0.541969 0.272936 0  0.559375 0.3 0  0.556796 0.282529 0  0.543473 0.287206 0  0.581429 0.267774 0  0.566728 0.271171 0  0.570869 0.255585 0  0.577404 0.283865 0  0.603125 0.3 0  0.597531 0.28035 0  0.570312 0.338778 0  0.592188 0.292492 0  0.603513 0.256094 0  0.614063 0.286265 0  0.610329 0.27064 0  0.632708 0.251285 0  0.657223 0.261594 0  0.618789 0.257807 0  0.614188 0.22987 0  0.630935 0.265614 
[...]
<PointData  Vectors="v"> 
	<DataArray  type="Float64"  Name="v"  NumberOfComponents="3" format="ascii">
0.0 0.0 0.0 0.0 0.0 0.0 0.0 0.0 0.0 0.0 0.0 0.0 0.7962359210259201 -0.19598972647979254 0.0 0.8404021951040691 0.2077618884877097 0.0 1.1684416379054323 -0.05943083959298496 0.0 1.1367339894381692 0.055819277222671194 0.0 0.0 0.0 0.0 0.0 0.0 0.0 0.0 0.0 0.0 0.0 0.0 0.0 0.0008522232088809473 0.0007885538327213357 0.0 3.976566863089214e-05 -6.684571125698944e-05 0.0 0.0004025254959070682 0.0007094556394818413 0.0 0.0 0.0 0.0 0.0 0.0 0.0 0.0 0.0 0.0 0.0 0.0 0.0 0.0 0.0 0.0 0.0 0.0 0.0 0.0 0.0 0.0 0.0 0.0 0.0 0.0 0.0 0.0 0.0 0.0 0.0 0.0 0.0 0.0 0.0 0.0 0.0 0.0 0.0 0.0 0.0 0.0 0.0 0.0 0.0 0.0 0.0 0.0 0.0 0.0 0.0 0.0 0.0 0.0 0.0 0.0005473409214641826 -0.0009513793339397405 0.0 0.0005379182524649779 -0.0007966775346550358 0.0 0.0008455409669310991 -0.0007900926065254082 0.0 0.0 0.0 0.0 0.0 0.0 0.0 0.0 0.0 0.0 0.0 0.0 0.0 0.0 0.0 0.0 0.7613283735410316 -0.0012991660191772618 0.0 1.2753996883723089 0.08291529154944166 0.0 1.2664392933863398 -0.07743667375306147 0.0 0.0 0.0 0.0 1.3536366159702484 -0.13300619017511942 0.0 1.3581714253728963 0.15487764414633667 0.0 0.0 0.0 0.0 0.0 0.0 0.0 1.0 0.0 0.0 0.0 0.0 0.0 0.0 0.0 0.0 0.0 0.0 0.0 0.842598691953676 -0.23189972501732967 0.0 1.1514007828907127 -0.34431948239486126 0.0 0.8637766934908154 0.22929413546307514 0.0 1.1662775702025228 0.3541148229263283 0.0 0.4282351025376222 -0.003985834524931333 0.0 0.1647972663479211 0.0623358533752172 0.0 0.17007229680877242 -0.06104328750285884 0.0 -0.027427482077148672 -0.03834290054060756 0.0 -0.025923357782519408 0.03624904192614929 0.0 0.33438101354990096 -0.2798602182780214 0.0 0.8579016216565712 -0.6734698936088765 0.0 0.6400017370945693 -0.688165516706425 0.0 1.2061548189491451 -0.6132985268763104 0.0 0.4153340458379354 -0.06917405815527951 0.0 0.33044369352339353 0.2687303092521033 0.0 0.6428221580054294 0.669310959990041 0.0 1.1851307955671662 0.6153864686533116 0.0 0.4082320973162472 0.07142108469573259 0.0 1.3132477832873268 0.2609164961162354 0.0 0.3238191828236812 0.25237160704827954 0.0 1.3026269549906733 -0.24052794766175079 0.0 0.3144807584592111 -0.23942765831531712 0.0 -0.033457035959286535 -0.016985771029239972 0.0 1.1249107043565936 -0.39875586573576893 0.0 1.0932127355448271 -0.7243481897833831 0.0 0.852042727025591 0.7707335276278768 0.0 1.131331910223117 0.3995530839988026 0.0 0.7593294780035804 0.18601705587517123 0.0 0.10881713678707144 0.051496377361284776 0.0 0.7693702749255732 -0.18190308269374092 0.0 0.1112083378717872 -0.0498643078621236 0.0 -0.02953989493537668 0.019035372707511527 0.0 1.0274912978613868 0.7188740522454011 0.0 0.4423739764170114 0.529180587924363 0.0 0.45803709392952835 0.17793654339034537 0.0 0.27144061513347045 0.0690486591335531 0.0 0.4640657702111122 -0.1734471709923802 0.0 0.27704274003761636 -0.06466446342294646 0.0 -0.07505788188300766 0.002255624374806057 0.0 0.9654717173332227 0.3174169898816376 0.0 1.2605641542082278 0.31323130233844976 0.0 1.245122316162621 0.2888907231002521 0.0 1.2348254840188546 -0.307644050063431 0.0 1.247803139890615 -0.2810120566577701 0.0 1.2201394138208654 0.33107704312646447 0.0 1.226133537660745 -0.3226257807171919 0.0 0.4428944533738187 -0.5445860295252676 0.0 0.8020189284045469 -0.13964256356023838 0.0 0.6715152409993266 -0.41971134766119034 0.0 0.8773568476907414 0.5938381016951575 0.0 0.799302316692808 0.14279229336620897 0.0 0.6764845187711771 0.4201393878033791 0.0 1.2927597609092516 -0.007132892807899022 0.0 0.2932020246287861 0.1444821895610712 0.0 0.2947202923507006 -0.13438258983380744 0.0 -0.05426883141013939 -0.0129640498799281 0.0 1.265050164860342 0.4718438641687076 0.0 0.7687407849028539 0.12086055463402205 0.0 1.2611259913880049 -0.4732778068378008 0.0 0.7890194507643782 -0.11557183459610362 0.0 1.2755780741970462 0.4181047427960683 0.0 1.253996103984682 0.4011658860911424 0.0 1.2715815263885206 -0.41422062877652943 0.0 1.244694682847015 -0.38110381051159603 0.0 0.5835294211253628 -0.16054034254031993 0.0 0.7964379374527805 -0.3318189356804062 0.0 1.0104187327885916 0.6038015826220021 0.0 0.5917470603258654 0.15059609295986764 0.0 0.8125549606970984 0.33169599184130666 0.0 0.7458018807045023 0.08085494993762204 0.0 0.7826051628175889 -0.07302901306453273 0.0 0.052279113615190644 -0.022114310937503108 0.0 1.3634821258620526 0.20749044201013736 0.0 0.9298260303716374 -0.32222512181969576 0.0 1.3445359738205158 -0.1900397521312058 0.0 0.40920436241656416 0.09091472212636377 0.0 0.42711484151296897 -0.07824193464697458 0.0 -0.0544850669498244 -0.00817223033305912 0.0 1.0573546671276297 0.35401895175518644 0.0 0.9431511937315002 0.39147546497950203 0.0 0.9222393319727809 0.11235807347143419 0.0 0.8241704230725301 -0.08693722451115461 0.0 1.3068319930477743 0.01670185668259495 0.0 1.0275118859233598 -0.3451875479474587 0.0 1.0744948764688314 -0.5703251997312019 0.0 0.9301366983081166 -0.3893973654823811 0.0 0.9974705317553235 -0.4386497030482551 0.0 0.9329350266821161 -0.5428326000774316 0.0 0.8655352830034351 -0.4065057169163732 0.0 1.2733251056145602 0.23291773028595525 0.0 1.2715492889403035 -0.2195941685172572 0.0 0.8526587042726311 -0.23563759783301777 0.0 0.8790535171852154 -0.30995781328219774 0.0 0.8528986620231568 -0.29905239381614085 0.0 0.851412080093447 -0.2564026705856609 0.0 0.8542147107842948 -0.25278418479307035 0.0 0.8962768094765584 -0.31946851186626574 0.0 1.329252721479273 0.3156534532789019 0.0 1.0845375863454407 -0.0023658985345627968 0.0 1.314592854570127 0.36240739300784175 0.0 1.3213165838676293 -0.29603483530352614 0.0 0.0 0.0 0.0 0.0 0.0 0.0 1.299425166552471 -0.3494482735659699 0.0 0.7142458258683116 -0.26732679354232686 0.0 0.8203936698427463 -0.21077431249750037 0.0 0.8711722723800189 -0.1107649663308952 0.0 0.8624427344013503 -0.16377666758170567 0.0 0.9375 0.0 0.0 0.7500000000000001 0.0 0.0 0.7224703744690563 0.2652977163275249 0.0 0.8240344763930126 0.20013817286931238 0.0 0.7499999999999999 0.0 0.0 0.8697150497203503 0.12781568673167085 0.0 0.9287117608569103 0.04282882163962791 0.0 0.8481108013392695 0.045059622962461174 0.0 -0.034798478616291734 -0.011623989274325713 0.0 0.09148871633434626 -0.017607467986204592 0.0 1.1150049553975339 0.5547903086125016 0.0 1.0190056273840746 0.4731553912972125 0.0 0.8809686367847851 0.24547255906384907 0.0 1.2000488131916414 0.1390754460417382 0.0 1.328842736091041 0.05986444599431434 0.0 0.3520246953029634 0.03798744048255101 0.0 1.3561458315306982 0.10292268650117059 0.0 0.7139312876723388 0.053779480818593794 0.0 1.171136118998813 0.10025644809859412 0.0 0.5145566601476536 0.01586289599175512 0.0 0.49617599581448135 0.030046378312331486 0.0 0.06978125095940473 0.013402581088010302 0.0 0.9566101271410472 0.034559568601809684 0.0 0.2570696249288527 0.022163370923401288 0.0 0.16326630648938034 0.008562927336112958 0.0 0.26761769498543475 0.014644851654355197 0.0 0.6665890122984551 -0.004749868813619575 0.0 0.4982891512977079 0.007048731067220081 0.0 1.3157528729982528 0.019360241411197493 0.0 0.5424415293001754 0.0621200415445988 0.0 1.230182967231692 -0.14201274858438165 0.0 0.20203338432501586 -0.0376024498944297 0.0 1.205814838500562 0.17359173727920468 0.0 0.8828215798613251 0.17973936675452828 0.0 0.701123564916264 -0.16795381852031596 0.0 1.115553899731386 -0.09422357610283442 0.0 1.0385367628276443 -0.22374712692125603 0.0 0.8637530003618512 -0.18265847212265532 0.0 0.8754193844751091 -0.02560293086068764 0.0 0.43944635516309904 -0.04809842820045065 0.0 0.2904851707478079 -0.0330834453751254 0.0 1.3289794947249836 -0.041872961417228696 0.0 0.20853113243614393 -0.01350317410281611 0.0 1.3554297452111963 -0.08635217513108966 0.0 0.1915184960786316 -0.01909601825203338 0.0 0.535604871447238 -0.01569865590377515 0.0 -0.0015300857498664485 -0.011254282152730076 0.0 0.5722376554527817 -0.03146849755666652 0.0 0.878887406961401 0.29715723954418727 0.0 0.8795553416170464 0.4107745243428247 0.0 0.8850904004906506 0.2703409890351392 0.0 0.912218091293864 0.10984462882816783 0.0 0.8651761137747008 0.22329703352452282 0.0 0.9047237517901475 0.30372376977517906 0.0 0.8572346981314823 0.23352460498360933 0.0 0.802024517062739 0.18338469563234377 0.0 0.8670530759946042 0.16152928730910646 0.0 0.0 0.0 0.0 0.8415164952526015 0.17669470560537423 0.0 0.8706537176317064 0.17102137756920086 0.0 1.2131551054142424 0.049783860679484114 0.0 1.237570000105113 0.0649978980820491 0.0 0.8901978165233784 0.01326901286865883 0.0 0.5940210090465915 -0.025845803732217752 0.0 1.2798848766652866 0.1471146974220517 0.0 0.7176190108892816 -0.17372546437748027 0.0 1.1779835603994402 -0.16453633710225263 0.0 0.9986420281936178 -0.019803994855795627 0.0 1.3235886339720222 -0.007689187594955968 0.0 0.5855265447807837 -0.00012375151927904927 0.0 1.2204676065349107 -0.01258947628522853 0.0 0.9835149999216715 0.009250085860411143 0.0 -0.004565134458181714 -0.006978647959445414 0.0 -0.09616325055817529 0.001097771799430222 0.0 0.9448534831349614 0.3412356247260992 0.0 0.8777525731962474 -0.018349627750026753 0.0 0.4274447578438519 -0.008079396447921128 0.0 0.0 0.0 0.0 1.3286970667926299 0.03753262855937225 0.0 1.2125896375595573 0.02499912854366787 0.0 1.3172693109663436 0.1146263356306773 0.0 1.2525197040356535 -0.04434839585118246 0.0 0.41357663173238235 -0.013808347472683816 0.0 1.2283482460049926 0.010554943477546694 0.0 1.2911317014573696 0.05696939765634898 0.0 0.04103808664400733 -0.009831616223595836 0.0 -0.08248642556223311 -0.005213193348796269 0.0 -0.06766653880006922 -0.0075154402930470475 0.0 -0.08117170703791508 0.0029354943013590305 0.0 1.1858186787012313 0.2197393461013877 0.0 0.7774468208948175 0.19848011859314033 0.0 0.7779120546437325 0.15422903783186628 0.0 0.7857359995313582 0.10690275238866401 0.0 0.6205719460902207 0.11097968125493046 0.0 0.3528897098653548 0.0015069278690432086 0.0 0.09321626241117822 0.003962462464094023 0.0 0.3647216246596344 -0.020443644984123738 0.0 1.0719945346265485 0.07674826976695565 0.0 0.0 0.0 0.0 0.5199069617064989 0.01143083184973093 0.0 0.9319294748573629 0.029269125243100106 0.0 -0.10945288874185445 0.000621629403667224 0.0 1.0970144881442254 0.2670473971725012 0.0 0.9003322899628101 0.11238985166371199 0.0 1.280417702353134 -0.04949093881257458 0.0 0.1867332094563022 -0.003656600622694666 0.0 0.3587882989805835 0.017924077310638477 0.0 0.143018638116067 0.00021858379942433557 0.0 1.3029494898416731 0.03934485773667934 0.0 -0.10615202719544024 -0.0016025299153794386 0.0 -0.07755556147259703 -0.0065315573312917695 0.0 -0.09783633452978939 -0.00450168568056734 0.0 -0.04361809921510265 0.0070082141003381514 0.0 -0.09565033138865314 0.0011919432016347456 0.0 -0.11594815190642443 0.00013114620840392585 0.0 -0.06697068040659732 -0.0018650122604755306 0.0 -0.04149405879644328 0.0035383206614585023 0.0 -0.1197883810508249 -0.0018976578633694149 0.0 0.07512505877320366 -0.0018589192924159416 0.0 -0.03892966551054946 0.005716650205321079 0.0 -0.12319863560232838 -0.0008727759316182879 0.0 -0.12186829759237895 -0.0005487422886016286 0.0 -0.023897626201919233 -0.0022288530313103803 0.0 0.0 0.0 0.0 0.9464150750582621 0.2554674799904041 0.0 0.951352044162951 0.040097461371758375 0.0 0.2246761042311055 -0.004307929933280244 0.0 0.308647561278128 -0.004521419727832383 0.0 0.5443469584196481 0.02100221235183861 0.0 0.912350674821475 0.04310463824244265 0.0 1.1920850811425252 0.034639170071209674 0.0 1.3537531555685296 0.014687313907335874 0.0 0.08794149629338122 0.00236222703612209 0.0 -0.03604658338300005 0.00025463648173135975 0.0 0.02254277849930957 -0.01141783129663485 0.0 0.13523010836997487 -0.00858400040657009 0.0 0.1254199454754955 -0.013623197905148765 0.0 0.3153170371309896 -0.02314082991814665 0.0 0.5751666665074768 -0.05088108013324101 0.0 0.8594078859197487 -0.052412853554505645 0.0 0.3666151982933092 -0.03165130231422553 0.0 0.5550598026534519 -0.03577228516018667 0.0 0.650407455579245 -0.04772766825784667 0.0 0.7700395901578666 -0.04103142054748203 0.0 0.25902072205383936 -0.028110589691029874 0.0 1.2729453683914786 -0.0646571082176143 0.0 1.0585339958945534 -0.05182590409512171 0.0 1.2865681540882346 -0.02907019510315036 0.0 1.048970848379613 -0.039701828468247324 0.0 -0.0429459896555132 -0.008543304205481047 0.0 1.0271595254074326 -0.06703227250256354 0.0 1.0600929495770908 -0.030057479695566675 0.0 1.2264476121427192 -0.10335651180356187 0.0 -0.10897115655341931 -0.0019030947367251532 0.0 0.46034392070540775 -0.04560388735229121 0.0 1.2515000478781353 -0.10573845333744306 0.0 0.13147430888529146 -0.021575088202365908 0.0 -0.12220622279367195 -0.0005395525427284415 0.0 1.261744369624147 -0.08748775028966836 0.0 0.06310344020859016 -0.020905940170929144 0.0 -0.11168430857304855 -0.002223181868983773 0.0 -0.026625998580454776 0.010307470506041394 0.0 0.04556467114608621 -0.017488674836092948 0.0 -0.06783578532360694 -0.007759764925020871 0.0 0.4185787053489639 -0.04893536910846961 0.0 -0.047764043101763534 -0.010553489291213709 0.0 0.11169146859932812 0.030034038697491657 0.0 -0.0826901558293547 0.0060063761694468705 0.0 -0.07301561900380059 -0.006166394817140741 0.0 -0.09976558682139042 0.0009037708380385883 0.0 0.03900442228202315 0.01745151828341369 0.0 1.2160255754648555 0.1026194759502269 0.0 0.3271733108333075 0.03764313590288453 0.0 0.3045559423690247 -0.04477121623148226 0.0 0.25555921786196023 -0.010069813760707655 0.0 0.7079648105986411 -0.020569489559475358 0.0 0.3061391797753335 0.005636544051471542 0.0 1.1766242254093473 0.05307723952397145 0.0 0.8888531988359324 0.06113141841271279 0.0 0.9293583992028353 -0.08286461746129609 0.0 -0.047914174956199915 -0.0040708813947633645 0.0 -0.058983664930514365 -0.0034604186072734362 0.0 -0.11922656316484304 -0.0012356130464184648 0.0 -0.04597599248135265 0.004344917883126602 0.0 -0.07973030293186192 -0.003947027213354051 0.0 0.3258154591831017 -0.03845940283276871 0.0 1.2584570701304116 -0.09366185088730976 0.0 0.62614957571998 -0.06162082743927923 0.0 0.8938484245852434 -0.08598139990372992 0.0 -0.029353298296374904 0.01301246910119902 0.0 0.060746686699823825 -0.022864138674747014 0.0 -0.007712015438115061 -0.015075403945425753 0.0 0.20829430750241562 -0.03874413135015036 0.0 -0.01662712606500065 -0.014549118709028884 0.0 1.2529511319943798 0.10586063247392438 0.0 -0.06714509658785242 -0.0010767197041627178 0.0 -0.015322702281797955 0.010471623868139367 0.0 -0.05182110010776037 -5.2661220048788865e-05 0.0 0.0542716976902018 -0.02201704340139201 0.0 0.3370132336786907 0.02480357564172368 0.0 0.6881396255156478 -0.07011264764396159 0.0 0.5073812470178021 -0.05983745616343347 0.0 0.7869529431796722 -0.06830714850074669 0.0 0.2645353558775822 -0.03832009149827597 0.0 0.8194052048833783 -0.08782774645745786 0.0 1.1666425924643722 -0.09114705788759814 0.0 1.0676369690597578 -0.08369423084448308 0.0 1.040819651683945 -0.07515753966733817 0.0 0.5921525836282245 -0.06958350378165831 0.0 0.5036253196606925 -0.06466315741301487 0.0 0.3907931689225836 -0.05766605767519407 0.0 0.3661781583108249 -0.05427249618543921 0.0 0.14410594747059507 -0.03319585870715247 0.0 0.7869743482682517 -0.08851642756927487 0.0 0.25943556067319345 0.014864717319645074 0.0 0.60668646024456 0.037974825862502344 0.0 0.06668049995858859 0.006206586623204288 0.0 0.1711622253832631 0.018036473399902747 0.0 -0.07061606045887794 0.0005024653744460553 0.0 1.3327266687469708 -0.024392472031988213 0.0 1.2178668740237635 0.041172073578021016 0.0 1.35522500895291 -0.012018397828458266 0.0 1.3268478189112458 -0.06319879882149392 0.0 0.16891855851204832 -0.03617785325724573 0.0 0.35694034881589515 -0.055039083263378884 0.0 0.558440842835387 0.04696802237240188 0.0 0.08674773526620323 0.0158052565228953 0.0 1.3082122183345997 0.0041032970865911835 0.0 1.3483230866310583 -0.032933861141977626 0.0 0.5165629753230465 0.06822355059954092 0.0 1.3272785285166826 -0.07672477078068739 0.0 0.5884216473629581 0.04344753943232217 0.0 1.2823120691529544 0.07201021953564943 0.0 0.33231424334065945 0.03381350811250351 0.0 0.7037133055366904 0.06393028159684924 0.0 1.3346915138726547 0.024199624083690828 0.0 1.2313193943476688 -0.024176735380258038 0.0 1.317966928050405 -0.08679042677750612 0.0 0.8247077288677324 0.06151601844622406 0.0 1.0475145957990477 0.07906244733062301 0.0 1.1068093529824874 0.07246486921096217 0.0 1.2664116638366003 0.0984320993078391 0.0 1.1280379503341986 0.09724458989886148 0.0 0.9744550442867451 0.08135421817192251 0.0 0.6682120499383661 0.0674355761625298 0.0 1.2735392708184532 -0.09010316950194389 0.0 0.0 0.0 0.0 1.307860982027538 0.057862521212425716 0.0 0.9162397981387714 0.08951072038880051 0.0 0.32468958142437515 0.04211516909728855 0.0 1.3157561564748792 0.0716495483349638 0.0 0.8987697697068386 0.08536274278724972 0.0 1.2703830776166376 0.09127300185755284 0.0 0.59741542448246 0.06628268277818616 0.0 1.2614375833549167 0.10343405073514454 0.0 0.548201691280323 0.06800146687627558 0.0 0.2551360234586432 0.04027174851578905 0.0 1.1460112362964932 0.10145391517532094 0.0 0.6605421915115858 0.07469001314438131 0.0 1.07159515540189 0.10314700701654289 0.0 0.8436624283643289 0.09033247252753626 0.0 0.7745762096363208 0.08837029262708081 0.0 1.1952904831495677 0.08874417699743498 0.0 1.115634565214143 0.09187561819642193 0.0 1.3060300972531498 0.08188180665721286 0.0 0.15514068917172028 0.02898181268877595 0.0 1.1520586873686511 0.07894830508113629 0.0 1.2158553269337389 0.10628005741613299 0.0 1.156583757006621 0.10719665360595118 0.0 1.2332185533844258 0.10685048357630471 0.0 1.2432035871952039 0.10792231348013363 0.0 1.2909578146053078 0.08701144745312137 0.0 1.1830665797573539 0.06840101842471862 0.0 0.9438678229208165 0.10091286525048149 0.0 1.2290802987154166 0.09231766052782586 0.0 1.2787647289677995 0.09056626570425354 0.0 1.04505024615729 0.06519382177299338 0.0 1.1616184088890502 0.1091566525311 0.0 1.0783227526641272 0.1075710004609758 0.0 1.0587218667132456 0.10575520590343719 0.0 1.2322054602892976 0.09660118232067266 0.0 0.0 0.0 0.0 0.6445055914957302 -0.005600896964119954 0.0 1.0778234775133695 0.43425010687361987 0.0 1.1668905883315688 0.42226712561632174 0.0 1.0822616593106582 -0.4267766936477137 0.0 0.8656087303504608 -0.2270206097165492 0.0 0.9788939412428548 -0.25550855981515863 0.0 0.8923700871612694 -0.08500048570719232 0.0 1.2228763228560635 -0.05227562120170962 0.0 1.0814734404083433 -0.06399827669030037 0.0 1.1987727428739767 -0.1044502010370353 0.0 1.2651750622722038 -0.08452989330263291 0.0 1.3153584028323684 -0.05368212668548486 0.0 -0.0831480944451161 -0.002604492449110323 0.0 -0.05035418526634371 0.007653607554493667 0.0 0.0007597031921831036 0.010028722103451944 0.0 0.0006699839251942004 0.011985529879782157 0.0 0.14674249011141025 0.02679029655630961 0.0 -0.05710547199321121 0.008143613720644262 0.0 0.06120665697177774 0.02182244530001637 0.0 0.21692495819393445 0.03706011679877422 0.0 0.0848899303845939 0.038127026970129985 0.0 -0.03610997998764103 0.01496308777105753 0.0 1.0348385443677819 0.16079025752517798 0.0 -0.07035083407423713 0.004931660390534369 0.0 1.255250017957572 -0.10074389046774652 0.0 1.1427052862410707 -0.09834446007395034 0.0 0.9517322112790632 -0.09260445015576864 0.0 1.104990529724833 -0.10233540623504572 0.0 1.240028319325489 -0.1067097505390627 0.0 0.9144557311213098 -0.09561995903200912 0.0 1.2476833333907946 -0.10692996744094059 0.0 1.0790107999557945 -0.10516564524701873 0.0 1.1340828068905116 -0.10510827669201214 0.0 0.8653852164973846 -0.09513975300456315 0.0 0.9088775807994216 -0.09753104829259636 0.0 0.6280651522578933 -0.0780295663729591 0.0 1.1054743188078626 -0.10770452176055362 0.0 1.2336646720510565 -0.10643449098316975 0.0 1.0701011680271026 -0.10549175511616815 0.0 1.1679836343088381 -0.08597347734898755 0.0 1.1938596736144873 -0.10874648074905476 0.0 0.6840199912347543 -0.08210289644616953 0.0 1.141815759227051 -0.10588008815199867 0.0 0.9407223995101168 -0.098880312638