<?xml version="1.0"?>
<VTKFile type="UnstructuredGrid"  version="0.1"  >
<UnstructuredGrid>
<Piece  NumberOfPoints="1289" NumberOfCells="2413">
<Points>
<DataArray  type="Float64"  NumberOfComponents="3"  format="ascii">0 0 0  0 0.41 0  2.2 0.41 0  2.2 0 0  0.1 0.1 0  0.1 0.3 0  0.8 0.3 0  0.8 0.1 0  0.25 0.2 0  0.248976 0.210065 0  0.245948 0.219718 0  0.241038 0.228563 0  0.234448 0.23624 0  0.226448 0.242432 0  0.217365 0.246888 0  0.207571 0.249423 0  0.197468 0.249936 0  0.187467 0.248404 0  0.17798 0.24489 0  0.169395 0.239539 0  0.162062 0.232569 0  0.156283 0.224265 0  0.152293 0.214968 0  0.150257 0.205058 0  0.150257 0.194942 0  0.152293 0.185032 0  0.156283 0.175735 0  0.162062 0.167431 0  0.169395 0.160461 0  0.17798 0.15511 0  0.187467 0.151596 0  0.197468 0.150064 0  0.207571 0.150577 0  0.217365 0.153112 0  0.226448 0.157568 0  0.234448 0.16376 0  0.241038 0.171437 0  0.245948 0.180282 0  0.248976 0.189935 0  1.1 0 0  1.1 0.41 0  0.1 0.2 0  0.45 0.1 0  0.45 0.3 0  0.55 0 0  0.275 0.1 0  0.275 0.3 0  0.275 0 0  0.55 0.41 0  0 0.205 0  0.825 0 0  0.825 0.41 0  0.275 0.41 0  0.1 0.15 0  0.1875 0.1 0  0.1 0.25 0  0.1875 0.3 0  0.132322 0.2 0  0.241426 0.253518 0  0.241426 0.146482 0  0.264574 0.17974 0  0.264574 0.22026 0  0.138434 0.187348 0  0.153372 0.150948 0  0.148413 0.164094 0  0.176495 0.136535 0  0.22768 0.143571 0  0.138434 0.212652 0  0.148413 0.235906 0  0.176495 0.263465 0  0.22768 0.256429 0  0.23125 0.3 0  0.24769 0.24094 0  0.23125 0.1 0  0.24769 0.15906 0  0.26253 0.193641 0  0.190482 0.137872 0  0.166753 0.146661 0  0.157737 0.244461 0  0.190482 0.262128 0  0.203107 0.261264 0  0.253635 0.22977 0  0.203107 0.138736 0  0.253635 0.17023 0  0.261028 0.206206 0  0.167707 0.251809 0  0.143629 0.224191 0  0.215302 0.2591 0  0.270465 0.245894 0  0.215302 0.1409 0  0.270465 0.154106 0  0.284052 0.202587 0  0.14375 0.3 0  0.209375 0.3 0  0.225966 0.278501 0  0.209375 0.1 0  0.225966 0.121499 0  0.211613 0.273759 0  0.211613 0.126241 0  0.143629 0.175809 0  0.1 0.175 0  0.133484 0.164832 0  0.144491 0.249539 0  0.1 0.225 0  0.133484 0.235168 0  0.3625 0.3 0  0.25691 0.253381 0  0.25691 0.146619 0  0.277205 0.188698 0  0.184724 0.275712 0  0.237372 0.268285 0  0.184724 0.124288 0  0.237372 0.131715 0  0.197578 0.273149 0  0.193656 0.286994 0  0.197578 0.126851 0  0.193656 0.113006 0  0.122953 0.187671 0  0.118362 0.153758 0  0.155372 0.258107 0  0.122953 0.212329 0  0.118362 0.246242 0  0.276394 0.27264 0  0.276394 0.12736 0  0.280965 0.170013 0  0.253125 0.3 0  0.14375 0.1 0  0.253125 0.1 0  0.269489 0.26014 0  0.269489 0.13986 0  0.303639 0.184297 0  0.165625 0.3 0  0.134742 0.273113 0  0.257831 0.274737 0  0.255279 0.128499 0  0.3625 0.1 0  0.165625 0.1 0  0.162031 0.132368 0  0.134955 0.126405 0  0.149334 0.125568 0  0.142936 0.139597 0  0.12695 0.140259 0  0.242514 0.285501 0  0.242514 0.114499 0  0.1 0.125 0  0.117483 0.12555 0  0.11154 0.139776 0  0.121875 0.1 0  0.109143 0.1125 0  0.126805 0.114 0  0.220313 0.29129 0  0.351562 0.287369 0  0.207222 0.2866 0  0.220312 0.10871 0  0.1375 0 0  0.20625 0 0  0.207222 0.1134 0  0.11722 0.17118 0  0.1 0.1625 0  0.0778409 0.16875 0  0.0862762 0.15625 0  0 0.15375 0  0 0.1025 0  0.11722 0.22882 0  0.1 0.2375 0  0 0.3075 0  0.0862762 0.23125 0  0.0598995 0.222547 0  0.0860223 0.2125 0  0.289584 0.181469 0  0.300267 0.16446 0  0.163832 0.269071 0  0.149597 0.273325 0  0.1 0.275 0  0.268498 0.285953 0  0.31875 0.3 0  0.294154 0.254672 0  0.296875 0.3 0  0.293558 0.271845 0  0.285095 0.286799 0  0.324298 0.264316 0  0.307866 0.263745 0  0.317093 0.234901 0  0.315485 0.281219 0  0.316547 0.250625 0  0.344693 0.243731 0  0.331592 0.251147 0  0.35129 0.270663 0  0.338689 0.263683 0  0.340625 0.3 0  0.249849 0.264383 0  0.265097 0.11422 0  0.284688 0.156136 0  0.242188 0.324017 0  0.0856613 0.2625 0  0.132812 0.0612217 0  0.264062 0.0612217 0  0.198437 0.07598340000000001 0  0.0860223 0.1375 0  0.0794526 0.191089 0  0.285228 0.140397 0  0.298655 0.148737 0  0.31875 0.1 0  0.327335 0.15374 0  0.296875 0.1 0  0.312289 0.155283 0  0.313348 0.135607 0  0.321802 0.173916 0  0.298433 0.134116 0  0.112124 0.2625 0  0.127526 0.259083 0  0.121875 0.3 0  0.0682687 0.241503 0  0.1 0.2875 0  0.117762 0.28125 0  0.107813 0.3 0  0.103906 0.313849 0  0.0778409 0.28125 0  0.1375 0.41 0  0.0862762 0.29375 0  0.08886860000000001 0.24375 0  0.307812 0.338778 0  0.307812 0.292227 0  0.33216 0.279164 0  0.387888 0.266414 0  0.264063 0.31948 0  0.110937 0.07598340000000001 0  0.242188 0.07598340000000001 0  0.319914 0.11839 0  0.340625 0.1 0  0.334448 0.133793 0  0.329687 0.108539 0  0.346259 0.118491 0  0.360334 0.173636 0  0.327539 0.205033 0  0.132812 0.288712 0  0.362436 0.278836 0  0.368105 0.259418 0  0.4125 0.41 0  0.329687 0.324017 0  0.329687 0.292306 0  0.285938 0.318952 0  0.417187 0.338778 0  0.324481 0.14148 0  0.351562 0.106771 0  0.40625 0.1 0  0.341028 0.168342 0  0.319221 0.190479 0  0.335292 0.184501 0  0.305563 0.20794 0  0.220313 0.31948 0  0.132812 0.332772 0  0.0865876 0.311259 0  0.0598995 0.302453 0  0.0906541 0.343255 0  0.353543 0.255837 0  0.36574 0.237633 0  0.405007 0.254279 0  0.275795 0.352123 0  0.4125 0 0  0.35493 0.137394 0  0.366563 0.120618 0  0.35917 0.205246 0  0.198438 0.318952 0  0.0626109 0.263892 0  0.40625 0.3 0  0.354809 0.155936 0  0.386512 0.146872 0  0.373101 0.159939 0  0.384375 0.1 0  0.343394 0.19929 0  0.350682 0.185683 0  0.368101 0.189748 0  0.344016 0.221511 0  0.391108 0.213329 0  0.376279 0.204783 0  0.398843 0.182768 0  0.375804 0.222746 0  0.390665 0.196958 0  0.394004 0.23518 0  0.359883 0.222828 0  0.419908 0.204359 0  0.404243 0.204783 0  0.412615 0.224526 0  0.20625 0.41 0  0.165625 0.325257 0  0.0347982 0.244954 0  0.379558 0.247154 0  0.34165 0.147603 0  0.372264 0.136992 0  0.388988 0.121989 0  0.373437 0.108554 0  0.351562 0.31948 0  0.391367 0.16527 0  0.399572 0.223324 0  0.452011 0.227371 0  0.40877 0.239392 0  0.431491 0.237337 0  0.421224 0.250459 0  0.449619 0.262098 0  0.418865 0.276779 0  0.437063 0.252274 0  0.415673 0.263227 0  0.430988 0.266772 0  0.402767 0.273419 0  0.452967 0.244883 0  0.428125 0.3 0  0.408502 0.286186 0  0.384375 0.3 0  0.392267 0.285807 0  0.465927 0.219339 0  0.43489 0.283846 0  0.376424 0.286289 0  0.625 0.3 0  0.473533 0.205186 0  0.461713 0.255517 0  0.5375 0.3 0  0.465725 0.235405 0  0.44631 0.201425 0  0.471875 0.3 0  0.494307 0.227729 0  0.459448 0.206736 0  0.462294 0.180792 0  0.478933 0.227536 0  0.486793 0.21381 0  0.486322 0.251373 0  0.50065 0.215318 0  0.54005 0.175389 0  0.474633 0.189893 0  0.512916 0.208697 0  0.49531 0.199967 0  0.475889 0.175275 0  0.625 0.1 0  0.459311 0.153933 0  0.513645 0.242704 0  0.392892 0.248539 0  0.374815 0.271913 0  0.365974 0.14871 0  0.395312 0.109184 0  0.417061 0.123981 0  0.483196 0.277003 0  0.381967 0.179632 0  0.429898 0.219374 0  0.433473 0.206165 0  0.43149 0.181038 0  0.444208 0.215487 0  0.472985 0.247309 0  0.49375 0.3 0  0.475579 0.262714 0  0.49916 0.274293 0  0.501175 0.184809 0  0.514164 0.225681 0  0.543648 0.214977 0  0.5341630000000001 0.23481 0  0.527396 0.216171 0  0.5375 0.1 0  0.534548 0.202315 0  0.561545 0.192513 0  0.5494289999999999 0.201221 0  0.570923 0.218346 0  0.412582 0.149833 0  0.489327 0.264745 0  0.502439 0.254775 0  0.462391 0.271166 0  0.496775 0.241732 0  0.5294410000000001 0.268606 0  0.482812 0.291099 0  0.46879 0.285038 0  0.452663 0.284065 0  0.51789 0.257882 0  0.53408 0.252026 0  0.560142 0.243543 0  0.545708 0.243474 0  0.547532 0.229019 0  0.55282 0.265323 0  0.398971 0.153424 0  0.400349 0.135684 0  0.410135 0.168145 0  0.428823 0.161323 0  0.415266 0.183779 0  0.329687 0.0810483 0  0.395312 0.0612217 0  0.373437 0.318952 0  0.439062 0.324017 0  0.561816 0.229354 0  0.585029 0.239287 0  0.431827 0.139854 0  0.446796 0.168929 0  0.351562 0.07598340000000001 0  0.395313 0.318944 0  0.54337 0.150762 0  0.460937 0.31948 0  0.418412 0.137529 0  0.428125 0.1 0  0.442783 0.152332 0  0.450742 0.134294 0  0.373437 0.0805201 0  0.384383 0.342558 0  0.482812 0.318952 0  0.429239 0.127457 0  0.444274 0.117405 0  0.426548 0.113815 0  0.49375 0.1 0  0.488954 0.113984 0  0.457973 0.121842 0  0.471621 0.137346 0  0.515625 0.325257 0  0.48125 0.41 0  0.417187 0.07598340000000001 0  0.496363 0.126778 0  0.479043 0.155715 0  0.439062 0.0805201 0  0.481795 0.126919 0  0.471875 0.1 0  0.489227 0.142159 0  0.515625 0.1 0  0.520062 0.147117 0  0.501244 0.161791 0  0.505431 0.112984 0  0.505344 0.14029 0  0.526563 0.119081 0  0.5181750000000001 0.131908 0  0.539868 0.136937 0  0.460937 0.108383 0  0.474242 0.114415 0  0.460937 0.0810483 0  0.487841 0.167168 0  0.526563 0.0612217 0  0.526563 0.106406 0  0.537619 0.112743 0  0.58125 0.1 0  0.559375 0.1 0  0.482812 0.08105569999999999 0  0.471883 0.0587655 0  0.570312 0.129396 0  0.548437 0.07598340000000001 0  0.504687 0.08105569999999999 0  0.49375 0.0470127 0  0.570312 0.112663 0  0.592798 0.12103 0  0.553986 0.12103 0  0.570312 0.0805201 0  0.48125 0 0  0.114787 0.2 0  0.160769 0.284765 0  0.175816 0.288361 0  0.162602 0.116048 0  0.154687 0.07598340000000001 0  0.176562 0.0805201 0  0.0598995 0.147547 0  0.307812 0.109924 0  0.291279 0.117157 0  0.278491 0.112989 0  0.285937 0.07598340000000001 0  0.307812 0.0805201 0  0.296928 0.196743 0  0.318141 0.218507 0  0.330208 0.227509 0  0.301397 0.225668 0  0.302706 0.241401 0  0.292574 0.21424 0  0.282762 0.230935 0  0.284351 0.244775 0  0.269553 0.23261 0  0.278572 0.217242 0  0.226924 0.342606 0  0.446928 0.185396 0  0.515625 0.3 0  0.504687 0.288879 0  0.515256 0.276534 0  0.529479 0.285328 0  0.58125 0.3 0  0.541969 0.272936 0  0.559375 0.3 0  0.556796 0.282529 0  0.543473 0.287206 0  0.581429 0.267774 0  0.566728 0.271171 0  0.570869 0.255585 0  0.577404 0.283865 0  0.603125 0.3 0  0.597531 0.28035 0  0.570312 0.338778 0  0.592188 0.292492 0  0.603513 0.256094 0  0.614063 0.286265 0  0.610329 0.27064 0  0.632708 0.251285 0  0.657223 0.261594 0  0.618789 0.257807 0  0.614188 0.22987 0  0.630935 0.265614 
[...]
<PointData  Vectors="v"> 
	<DataArray  type="Float64"  Name="v"  NumberOfComponents="3" format="ascii">
0.0 0.0 0.0 0.0 0.0 0.0 0.0 0.0 0.0 0.0 0.0 0.0 0.7962350929609239 -0.19599279176108908 0.0 0.8404031156353754 0.2077583823594435 0.0 1.1681605025401922 -0.05990574992036292 0.0 1.1371361845844015 0.05551526426935087 0.0 0.0 0.0 0.0 0.0 0.0 0.0 0.0 0.0 0.0 0.0 0.0 0.0 0.0008728429069140599 0.0008255560006225253 0.0 0.0009606708377197342 0.001528385867912323 0.0 0.0006694322784446307 0.0011715290923523492 0.0 0.0 0.0 0.0 0.0 0.0 0.0 0.0 0.0 0.0 0.0 0.0 0.0 0.0 0.0 0.0 0.0 0.0 0.0 0.0 0.0 0.0 0.0 0.0 0.0 0.0 0.0 0.0 0.0 0.0 0.0 0.0 0.0 0.0 0.0 0.0 0.0 0.0 0.0 0.0 0.0 0.0 0.0 0.0 0.0 0.0 0.0 0.0 0.0 0.0 0.0 0.0 0.0 0.0 0.0 0.00028073917229676806 -0.0004898790802816179 0.0 -0.00038201480302208586 0.0007967182133607056 0.0 0.0008240431583761521 -0.0007523937179837857 0.0 0.0 0.0 0.0 0.0 0.0 0.0 0.0 0.0 0.0 0.0 0.0 0.0 0.0 0.0 0.0 0.7613282281876265 -0.0013018660326901096 0.0 1.275701910551604 0.08292545209680884 0.0 1.2660903913954524 -0.07737505028718458 0.0 0.0 0.0 0.0 1.3536343130023851 -0.13297716561043182 0.0 1.3581926659135797 0.15485427488589243 0.0 0.0 0.0 0.0 0.0 0.0 0.0 1.0 0.0 0.0 0.0 0.0 0.0 0.0 0.0 0.0 0.0 0.0 0.0 0.8425978405442609 -0.23190250312998106 0.0 1.1514113686946252 -0.3443462612016916 0.0 0.8637779652787898 0.22929124858935476 0.0 1.1662696955090677 0.35408590238153453 0.0 0.4282348527979946 -0.003994014756555978 0.0 0.16555144540914626 0.06262793797704402 0.0 0.16930237048623414 -0.06074742131629916 0.0 -0.027482087291786673 -0.03830997305219454 0.0 -0.025836733559742628 0.03627111691195105 0.0 0.334381663676031 -0.27986960205949946 0.0 0.8578995910362731 -0.673480963309915 0.0 0.6400013414556625 -0.6881730303829635 0.0 1.2061415040407417 -0.6133148262737099 0.0 0.41604469339308875 -0.06890465190290013 0.0 0.3304429560401288 0.2687209892980496 0.0 0.6428228017649708 0.669302809552716 0.0 1.1851451828208581 0.6153708201608732 0.0 0.4075338601227344 0.07172534481745714 0.0 1.3132288887129384 0.2609342300101786 0.0 0.32323579085929494 0.25165972405500825 0.0 1.3026580667217789 -0.24050151444939336 0.0 0.31444020302085 -0.2397058443371494 0.0 -0.03345647145830647 -0.016945416668234004 0.0 1.1248497534555388 -0.3987623643475777 0.0 1.093199937947956 -0.7243538723434745 0.0 0.8520477317618286 0.7707285956731685 0.0 1.1313932293569353 0.3995477067460521 0.0 0.7594213155391643 0.1859806918749594 0.0 0.10876846508480269 0.05140187962574553 0.0 0.76927761329352 -0.18194168425503374 0.0 0.11112663021811219 -0.04991786062192632 0.0 -0.029510636753914934 0.019060849255205396 0.0 1.0275055136134825 0.7188724016590149 0.0 0.44237290436788695 0.5291720882931252 0.0 0.4577606629056846 0.17750039109884705 0.0 0.2712193667460138 0.0690196615135229 0.0 0.46433571057022 -0.17389377059300296 0.0 0.276845719771914 -0.06464754733236627 0.0 -0.07502636105642449 0.002262865704256883 0.0 0.9654718437320774 0.31740356687147264 0.0 1.2605429755444328 0.31319403780178917 0.0 1.2450958771949192 0.28885172236538326 0.0 1.2348529718416266 -0.3076785696862406 0.0 1.2478542594996838 -0.28105509316413524 0.0 1.2201629959373035 0.3310150137315151 0.0 1.226116326931723 -0.32269472104289765 0.0 0.44289559690511215 -0.5445943687298194 0.0 0.8020187265259857 -0.1396453851850189 0.0 0.6715150288530045 -0.41972119424600335 0.0 0.8773599949997702 0.593829339910724 0.0 0.79930260457866 0.14278960860124376 0.0 0.6764853614769621 0.4201302831373882 0.0 1.2927090159776347 -0.007216582594046749 0.0 0.29321018388902526 0.14422962874023493 0.0 0.29447525871924446 -0.13442358841596946 0.0 -0.05428477137138928 -0.012942164567494247 0.0 1.2650625099425084 0.47180789985874155 0.0 0.7686606462520423 0.12093519442454642 0.0 1.2611167469664282 -0.47331340285595924 0.0 0.78914610399123 -0.11551991824004647 0.0 1.2755959227502194 0.4180545599971152 0.0 1.253990448599528 0.4011266731541549 0.0 1.2715671548398988 -0.414273811578813 0.0 1.2447045886843748 -0.3811438742769258 0.0 0.5835293190478501 -0.1605476170892981 0.0 0.7964371986464256 -0.33182501699451983 0.0 1.0104248621849126 0.6037896093992282 0.0 0.5917473815269617 0.15058887399183513 0.0 0.8125561251168247 0.33169001226720435 0.0 0.7458798890160189 0.08081275459616255 0.0 0.782543052071632 -0.07303902724358351 0.0 0.052153467132379366 -0.022081014457724202 0.0 1.3634464418570147 0.20747680974832067 0.0 0.9298264371565229 -0.3222380799576879 0.0 1.344579908394063 -0.1900365349014991 0.0 0.4092658879822708 0.09078389574844774 0.0 0.4269314761733408 -0.07825267648399069 0.0 -0.05450491355974863 -0.008200941473875555 0.0 1.0573533200240794 0.3539981845155277 0.0 0.9431539213843101 0.3914652533073212 0.0 0.9221750124297278 0.11239404699513134 0.0 0.8242792752599978 -0.08687181902300449 0.0 1.3068375243356696 0.01661405347534187 0.0 1.027515267405426 -0.34520707775250214 0.0 1.07448892712327 -0.5703408168955996 0.0 0.9301347014060405 -0.3894077639725314 0.0 0.9974676920606244 -0.4386641379783676 0.0 0.9329323478836552 -0.5428426734953793 0.0 0.8655336995438511 -0.4065134188795245 0.0 1.2734309750784492 0.23291747242496474 0.0 1.271477057221828 -0.21957755086091565 0.0 0.8526577093984433 -0.2356405704011632 0.0 0.8790522855387879 -0.3099641688959638 0.0 0.8528974678569853 -0.2990572785874984 0.0 0.8514118531196225 -0.25641001819716436 0.0 0.8542137768381985 -0.25278911455371106 0.0 0.8962758239772445 -0.31947710641942323 0.0 1.3292129519125375 0.3156075254907459 0.0 1.084537482203575 -0.002457718305059068 0.0 1.3145782934847798 0.3623633785752192 0.0 1.3213711350095196 -0.29607988597825163 0.0 0.0 0.0 0.0 0.0 0.0 0.0 1.299448261478546 -0.34949330169630777 0.0 0.714245598975521 -0.2673326053154014 0.0 0.8203931332754719 -0.2107769644697147 0.0 0.8711721824381636 -0.11076439688793606 0.0 0.8624420124287799 -0.1637770981193706 0.0 0.9375 0.0 0.0 0.7500000000000001 0.0 0.0 0.7224708520093099 0.2652921193864675 0.0 0.8240352662648815 0.20013548971582687 0.0 0.7499999999999999 0.0 0.0 0.8697154567566052 0.1278151044268164 0.0 0.9287119190516143 0.042831299263357776 0.0 0.8481112344051889 0.04505924882154174 0.0 -0.03484337347618996 -0.011620245353225055 0.0 0.09135084046314537 -0.017596801064746342 0.0 1.1150121528015873 0.5547727987467266 0.0 1.0190093964136022 0.47314191086601487 0.0 0.880969763516474 0.24546946651775073 0.0 1.2000715067400023 0.1390618780990662 0.0 1.328842737566657 0.059810273251046306 0.0 0.3518905509815846 0.037983503142923356 0.0 1.3561357133366174 0.1028861952598992 0.0 0.7139137476216076 0.05373108619076222 0.0 1.1711476012173678 0.10022675285995702 0.0 0.5145398599822997 0.01580559665204054 0.0 0.49616620096576425 0.030018371204419823 0.0 0.06975062487698214 0.013361202514719797 0.0 0.9566355869263146 0.034513680804150265 0.0 0.25705198162406573 0.022121864145084703 0.0 0.16320491424287004 0.008446325779680358 0.0 0.26757442102717294 0.014575098807494611 0.0 0.6665907454265302 -0.004858583657231867 0.0 0.4982877991137008 0.006962002270455251 0.0 1.3157257581697177 0.019296616420784733 0.0 0.5424507757330386 0.06227164853843903 0.0 1.230242656519294 -0.14199023331986832 0.0 0.20184965697098484 -0.037570835716649056 0.0 1.2057859615486155 0.1735623713068425 0.0 0.8828226601244541 0.17973863963257203 0.0 0.7011245128374336 -0.16796029275357646 0.0 1.115569307941081 -0.09421334504562376 0.0 1.0385526691917348 -0.2237662617922464 0.0 0.8637521679625103 -0.18265925340563663 0.0 0.8754193597526351 -0.025602458198717773 0.0 0.4393406957791899 -0.04804896955734442 0.0 0.2902939676962194 -0.03306588457232078 0.0 1.3289589970639355 -0.041906064381844604 0.0 0.20839529700766657 -0.01352851507697914 0.0 1.3554462939449219 -0.08635812804036366 0.0 0.19136446527853593 -0.019091038633412473 0.0 0.5354906364970222 -0.01568526929234415 0.0 -0.001574782713561228 -0.011317467318733461 0.0 0.5721878101507872 -0.03143174957465364 0.0 0.8788892146588856 0.297152039010887 0.0 0.8795573777580813 0.41076691981289043 0.0 0.8850910425313689 0.27033281579963886 0.0 0.9122186184862964 0.10984623893604446 0.0 0.8651771124688761 0.22329339465643075 0.0 0.9047253098304707 0.30371694612062916 0.0 0.8572357146068119 0.23351963965346217 0.0 0.8020252993186542 0.1833802853534465 0.0 0.8670541008788439 0.16152927365047706 0.0 0.0 0.0 0.0 0.8415174015941913 0.1766933428897051 0.0 0.8706545494327973 0.1710204032588165 0.0 1.2131211253605672 0.0497640252386121 0.0 1.2375792832320518 0.06495487348262087 0.0 0.8902056960875953 0.013205660466207032 0.0 0.5939240252401742 -0.026045447664183426 0.0 1.2798679133616466 0.14709753963611893 0.0 0.7176188575809577 -0.1737300275886811 0.0 1.1780129791984426 -0.16455092502037044 0.0 0.9986454737653252 -0.01980188032803483 0.0 1.323591367576542 -0.007748406238788695 0.0 0.5854128207809138 -0.00015776157143733598 0.0 1.2204691181387466 -0.012609992194395587 0.0 0.9834730189927762 0.009191395891408568 0.0 -0.004521514500673703 -0.007195732879022762 0.0 -0.09614786244753154 0.0009961616162451501 0.0 0.9448549539427334 0.34122505232727474 0.0 0.8777414170049842 -0.018462513400897114 0.0 0.4273815208752982 -0.008247436564796335 0.0 0.0 0.0 0.0 1.3286483950828107 0.03749484138608315 0.0 1.212584583463085 0.024936779935983217 0.0 1.317237777934426 0.11459674831112347 0.0 1.252382679339283 -0.04432931742302378 0.0 0.41343567363912975 -0.01380715016254386 0.0 1.2283437444743064 0.010475634762948379 0.0 1.2912509032872121 0.056849989040281275 0.0 0.04101243153129282 -0.009945321359507023 0.0 -0.08247452218747232 -0.005284377728634196 0.0 -0.0676521247242064 -0.007635455637860784 0.0 -0.08114900678022835 0.0029016820668946283 0.0 1.1857963166515373 0.21972513747375286 0.0 0.7774459276483876 0.19847153136395876 0.0 0.7779130717984356 0.15422733978090328 0.0 0.7857365901722004 0.10690420586418414 0.0 0.6205728849539471 0.11097786614256176 0.0 0.35283806468141204 0.0013785926669363238 0.0 0.09311360773672027 0.0037410564426723835 0.0 0.36449238131190675 -0.020748697571033987 0.0 1.0719595617857336 0.07673093728812713 0.0 0.0 0.0 0.0 0.5198042531093846 0.011344194938200939 0.0 0.9318811882437341 0.029157876736888553 0.0 -0.10945286602363422 0.00037994179063401335 0.0 1.0970014083900517 0.2670235394405647 0.0 0.9003329501072233 0.11239161383063367 0.0 1.2802429139569163 -0.04956145772120208 0.0 0.1866838281588876 -0.003790653876332571 0.0 0.35880054023236513 0.017666560843507702 0.0 0.14305629939719144 -2.2502704228342313e-05 0.0 1.3030022177781568 0.03922555409299219 0.0 -0.10613142267794211 -0.0017663694433688224 0.0 -0.0775214524000493 -0.0067205529545696615 0.0 -0.09778833124387036 -0.004790202561205929 0.0 -0.04364946876642485 0.006857561096121261 0.0 -0.09572254791108274 0.0007832249508301643 0.0 -0.11595579139323554 -0.0002053215788791075 0.0 -0.06685696443548819 -0.002326315898985593 0.0 -0.0415882655139568 0.003231096857952458 0.0 -0.119762893487191 -0.0023196719904506964 0.0 0.07493507946578534 -0.002213624020631683 0.0 -0.038988295912716915 0.005495242764615701 0.0 -0.12324823495201072 -0.0014367032317469707 0.0 -0.12190521411819055 -0.001044411585799502 0.0 -0.024108752345275982 -0.0027120251196854333 0.0 0.0 0.0 0.0 0.9464102141427405 0.25545078504667035 0.0 0.9513521747125914 0.0401004151209412 0.0 0.22453859089841893 -0.004555942119208321 0.0 0.30852998845115764 -0.00457427443600175 0.0 0.5442679537246706 0.020842561023185126 0.0 0.9123260964202052 0.042929477848439666 0.0 1.1920933449838786 0.03451994919506358 0.0 1.3536899903177 0.014637734515991267 0.0 0.08806780230204844 0.001994899887657244 0.0 -0.036204762034575996 -0.0001723145607148004 0.0 0.022112802631699676 -0.011897534514316126 0.0 0.1349606334632419 -0.008980777718467427 0.0 0.12503453433827563 -0.014073621798596985 0.0 0.3149736236985607 -0.02349563996278459 0.0 0.574628291620395 -0.05109134542195741 0.0 0.8591764860464407 -0.0525802296841125 0.0 0.36615642666537956 -0.03198745946597754 0.0 0.5548017275984627 -0.03603695614131057 0.0 0.6500549961272798 -0.047957773152221404 0.0 0.7698951193505648 -0.041224112327794805 0.0 0.2584408095856889 -0.02846209271872989 0.0 1.2726839556249157 -0.06468057254047636 0.0 1.0583629257502354 -0.051949947191159015 0.0 1.2864643664639765 -0.029156976629923288 0.0 1.0488746974475969 -0.03983380024186854 0.0 -0.04335024488106229 -0.009005833618191007 0.0 1.0268209217215156 -0.06711351906702352 0.0 1.060044337602764 -0.03017712939602012 0.0 1.227099702846394 -0.10332950280741958 0.0 -0.10913684289346044 -0.0023514333524278603 0.0 0.4596693119204083 -0.045813911650477046 0.0 1.2511960166134608 -0.10521647129184757 0.0 0.13085801967263935 -0.021933145370840148 0.0 -0.12226487852924588 -0.001120125686457884 0.0 1.2613252879894234 -0.087304998421012 0.0 0.06240120516933414 -0.021020376107884355 0.0 -0.11183961443902615 -0.0027530447908752633 0.0 -0.02632962345165297 0.009814826404170642 0.0 0.044955049657984164 -0.01776790698261861 0.0 -0.06822050105869774 -0.008038556628324723 0.0 0.41767781165071377 -0.048982275607401364 0.0 -0.048235399924898385 -0.010631139373010457 0.0 0.11236256592589096 0.03078613035134591 0.0 -0.08254442704737572 0.005559672531637526 0.0 -0.07334472938041588 -0.006043211860357808 0.0 -0.09983170397177733 0.0007144904445274027 0.0 0.03944869674790709 0.017083119975425567 0.0 1.2153217658941664 0.10265387880163707 0.0 0.3276927919232678 0.03726298407314785 0.0 0.30351719614625133 -0.04450521490614164 0.0 0.25537120126513546 -0.01036895525514433 0.0 0.7079274674753491 -0.020727124829391805 0.0 0.30608695316070766 0.005470596758920076 0.0 1.1766727574046731 0.052921790097213296 0.0 0.88894315303593 0.060906747862873076 0.0 0.9286080041078568 -0.08271188539618968 0.0 -0.04782298598513744 -0.004427161648621728 0.0 -0.05922597130197238 -0.004004885749389176 0.0 -0.11931649856761974 -0.0018219921900827186 0.0 -0.04578431096212174 0.003768516745433651 0.0 -0.07997030543613333 -0.004514983897573222 0.0 0.3250513706184207 -0.038665768272761726 0.0 1.2580105289142984 -0.09335036773324858 0.0 0.6253616506069525 -0.06166082979660158 0.0 0.8929607018910851 -0.08569963245965122 0.0 -0.02901193119438067 0.012958695055020295 0.0 0.059980223700893974 -0.022659601723242582 0.0 -0.008259628594824868 -0.014293241966745238 0.0 0.2072758898635598 -0.038162150021234555 0.0 -0.017191934907424614 -0.014113642929169726 0.0 1.2532058904498509 0.10641236856917873 0.0 -0.06729117245262387 -0.0004997198668376688 0.0 -0.015157494894201179 0.01167279329463943 0.0 -0.051915916837317014 0.0008677975722865546 0.0 0.05370458807553412 -0.020695899594877894 0.0 0.33718349646347356 0.02441848792132592 0.0 0.6872308430495909 -0.06999522141823945 0.0 0.5063426992012421 -0.059643831786622366 0.0 0.786332247333582 -0.06836158785733282 0.0 0.2636119303574122 -0.03831920902548141 0.0 0.8183130776543915 -0.0872452290743052 0.0 1.1660771844505935 -0.09091548452537543 0.0 1.0670716461700074 -0.08359396257111419 0.0 1.0403603640272105 -0.07516225624731246 0.0 0.5910022985174044 -0.06916441594421706 0.0 0.5024290648678718 -0.06405031296062483 0.0 0.38969201835059364 -0.056654294156180736 0.0 0.3650443179693154 -0.053468268624655396 0.0 0.1432127405199265 -0.03235050361392045 0.0 0.785878345787619 -0.08772322230319717 0.0 0.2595530911953897 0.014513124266491373 0.0 0.6067091554002575 0.037715724729959314 0.0 0.06687885409798855 0.0057306548919614075 0.0 0.17146338530443653 0.017545432937506482 0.0 -0.07048091919355731 -3.0507974525680088e-05 0.0 1.3327442024570855 -0.024421251254520913 0.0 1.2179559406444347 0.04113295411012276 0.0 1.3551282895195451 -0.012065875526732066 0.0 1.3266553871044457 -0.06312488818757782 0.0 0.16805157480924177 -0.03506143138128225 0.0 0.3561139969467842 -0.053724591400881136 0.0 0.5586864836699229 0.0466326621685363 0.0 0.08711042779519501 0.015285937530330846 0.0 1.3082365015005042 0.00405988235173449 0.0 1.3481856622863937 -0.03296509951091284 0.0 0.5176553116444927 0.06900195418274807 0.0 1.3270478989054753 -0.07656738351386402 0.0 0.5885574416257382 0.043133756039963125 0.0 1.2825169195814354 0.0719349188541881 0.0 0.33270875243874953 0.03339195613457393 0.0 0.7040915128517655 0.06369177738994337 0.0 1.3347503408967507 0.024131641627532528 0.0 1.2312223546967953 -0.02419780715313891 0.0 1.317746528009281 -0.08654090149376273 0.0 0.824887110367752 0.06127719340534014 0.0 1.0478018663146802 0.07893845103154011 0.0 1.1069824130542638 0.07230671194783553 0.0 1.2668284500849052 0.09873243648170195 0.0 1.1286046951667361 0.09747843742214667 0.0 0.9748618427480034 0.08127590538743668 0.0 0.6688202858799331 0.06731454222568922 0.0 1.2735008050977257 -0.08977424618656747 0.0 0.0 0.0 0.0 1.3080076158133247 0.05782480824102247 0.0 0.9169944460502669 0.08974474348280347 0.0 0.32537126822401174 0.041888907246476224 0.0 1.3159613323974026 0.071669138577123 0.0 0.8994189320548214 0.08544068655016523 0.0 1.2707619068348666 0.09141344491026242 0.0 0.5982140974906027 0.06629354518419546 0.0 1.2618084100780653 0.10389290821439306 0.0 0.5492311678522753 0.06841659440492058 0.0 0.2559326349990586 0.04030953705212409 0.0 1.1466217334065716 0.10184455490867506 0.0 0.6614761277978974 0.07492370319119601 0.0 1.0723355493897693 0.10373033060533443 0.0 0.8446148682983099 0.090815097689257 0.0 0.7756394492847454 0.08909886023789136 0.0 1.1956751549147409 0.08877587027302798 0.0 1.1161310405718639 0.0919675528698488 0.0 1.3062702005778017 0.08199245299527624 0.0 0.15576819702991956 0.02877622659017739 0.0 1.1519700027079822 0.0792537894329915 0.0 1.216313159310444 0.10683811703196099 0.0 1.1571318975936142 0.10784580395766054 0.0 1.2330401018625956 0.10736057782019 0.0 1.243284169598099 0.10851392405873593 0.0 1.2911792340030257 0.08722793005975414 0.0 1.183208141686148 0.06853989040555826 0.0 0.9446110695183941 0.10181910800079771 0.0 1.2289183281160367 0.09272034146349185 0.0 1.278946698322136 0.09088522538120575 0.0 1.0450132529433276 0.06537635184403918 0.0 1.161880165568305 0.10986664750350374 0.0 1.0785184126087217 0.10831309821590063 0.0 1.0594009467602463 0.1065346880276809 0.0 1.231917177404977 0.0969732446262464 0.0 0.0 0.0 0.0 0.6445056547744545 -0.005606271117225307 0.0 1.0778261583460569 0.43423084829110153 0.0 1.1668919596361937 0.42224047085476457 0.0 1.0822597753053904 -0.42679716605591783 0.0 0.8656125976981082 -0.22703222955521185 0.0 0.9789030812528587 -0.2555265048902945 0.0 0.8923696559291726 -0.08499827384629075 0.0 1.2228658206377065 -0.05227925343872631 0.0 1.0815142099002693 -0.06398399077969491 0.0 1.1987462898534529 -0.10443332755800526 0.0 1.2651992059367563 -0.08454401855230194 0.0 1.315359678315183 -0.053693474844734065 0.0 -0.0831309437055861 -0.002622097409254104 0.0 -0.05035169880076233 0.0075913102247141375 0.0 0.0007321211338476567 0.00993394923105903 0.0 0.0006720464374041782 0.011978922434962352 0.0 0.14671504510909195 0.026770488166423557 0.0 -0.05707452844444309 0.008145180233267805 0.0 0.06120287198030999 0.02187249347790765 0.0 0.21681032988213333 0.03710514858211906 0.0 0.0848875483043356 0.0381725375155711 0.0 -0.036058090600064624 0.015000107521530753 0.0 1.0348186985911814 0.1607728283791866 0.0 -0.07017271159126737 0.004339908737310208 0.0 1.2548402086589363 -0.10030625020133604 0.0 1.142044523084604 -0.09795477918553284 0.0 0.950807592995247 -0.09215492295269226 0.0 1.1042690034639573 -0.10176941663560961 0.0 1.240149819166453 -0.10626629004535311 0.0 0.913467233600225 -0.0949362731888392 0.0 1.247578744939969 -0.10639694158178087 0.0 1.0783688013137764 -0.10446274598678161 0.0 1.1334812827384733 -0.10448208324773632 0.0 0.8646289195507102 -0.09424498883655845 0.0 0.9080250872202711 -0.09668822675779233 0.0 0.6270210395611292 -0.07701227011686518 0.0 1.105097779415104 -0.10701666843546764 0.0 1.2340541987864968 -0.10614932289056639 0.0 1.069942162624947 -0.10486219965893682 0.0 1.1683497616407477 -0.08576945868287408 0.0 1.1939470120193485 -0.10825834561125496 0.0 0.6834961174034949 -0.08103097915492803 0.0 1.1420930087526724 -0.10552325641055868 0.0 0.940562325841274 -0