<?xml version="1.0"?>
<VTKFile type="UnstructuredGrid"  version="0.1"  >
<UnstructuredGrid>
<Piece  NumberOfPoints="1289" NumberOfCells="2413">
<Points>
<DataArray  type="Float64"  NumberOfComponents="3"  format="ascii">0 0 0  0 0.41 0  2.2 0.41 0  2.2 0 0  0.1 0.1 0  0.1 0.3 0  0.8 0.3 0  0.8 0.1 0  0.25 0.2 0  0.248976 0.210065 0  0.245948 0.219718 0  0.241038 0.228563 0  0.234448 0.23624 0  0.226448 0.242432 0  0.217365 0.246888 0  0.207571 0.249423 0  0.197468 0.249936 0  0.187467 0.248404 0  0.17798 0.24489 0  0.169395 0.239539 0  0.162062 0.232569 0  0.156283 0.224265 0  0.152293 0.214968 0  0.150257 0.205058 0  0.150257 0.194942 0  0.152293 0.185032 0  0.156283 0.175735 0  0.162062 0.167431 0  0.169395 0.160461 0  0.17798 0.15511 0  0.187467 0.151596 0  0.197468 0.150064 0  0.207571 0.150577 0  0.217365 0.153112 0  0.226448 0.157568 0  0.234448 0.16376 0  0.241038 0.171437 0  0.245948 0.180282 0  0.248976 0.189935 0  1.1 0 0  1.1 0.41 0  0.1 0.2 0  0.45 0.1 0  0.45 0.3 0  0.55 0 0  0.275 0.1 0  0.275 0.3 0  0.275 0 0  0.55 0.41 0  0 0.205 0  0.825 0 0  0.825 0.41 0  0.275 0.41 0  0.1 0.15 0  0.1875 0.1 0  0.1 0.25 0  0.1875 0.3 0  0.132322 0.2 0  0.241426 0.253518 0  0.241426 0.146482 0  0.264574 0.17974 0  0.264574 0.22026 0  0.138434 0.187348 0  0.153372 0.150948 0  0.148413 0.164094 0  0.176495 0.136535 0  0.22768 0.143571 0  0.138434 0.212652 0  0.148413 0.235906 0  0.176495 0.263465 0  0.22768 0.256429 0  0.23125 0.3 0  0.24769 0.24094 0  0.23125 0.1 0  0.24769 0.15906 0  0.26253 0.193641 0  0.190482 0.137872 0  0.166753 0.146661 0  0.157737 0.244461 0  0.190482 0.262128 0  0.203107 0.261264 0  0.253635 0.22977 0  0.203107 0.138736 0  0.253635 0.17023 0  0.261028 0.206206 0  0.167707 0.251809 0  0.143629 0.224191 0  0.215302 0.2591 0  0.270465 0.245894 0  0.215302 0.1409 0  0.270465 0.154106 0  0.284052 0.202587 0  0.14375 0.3 0  0.209375 0.3 0  0.225966 0.278501 0  0.209375 0.1 0  0.225966 0.121499 0  0.211613 0.273759 0  0.211613 0.126241 0  0.143629 0.175809 0  0.1 0.175 0  0.133484 0.164832 0  0.144491 0.249539 0  0.1 0.225 0  0.133484 0.235168 0  0.3625 0.3 0  0.25691 0.253381 0  0.25691 0.146619 0  0.277205 0.188698 0  0.184724 0.275712 0  0.237372 0.268285 0  0.184724 0.124288 0  0.237372 0.131715 0  0.197578 0.273149 0  0.193656 0.286994 0  0.197578 0.126851 0  0.193656 0.113006 0  0.122953 0.187671 0  0.118362 0.153758 0  0.155372 0.258107 0  0.122953 0.212329 0  0.118362 0.246242 0  0.276394 0.27264 0  0.276394 0.12736 0  0.280965 0.170013 0  0.253125 0.3 0  0.14375 0.1 0  0.253125 0.1 0  0.269489 0.26014 0  0.269489 0.13986 0  0.303639 0.184297 0  0.165625 0.3 0  0.134742 0.273113 0  0.257831 0.274737 0  0.255279 0.128499 0  0.3625 0.1 0  0.165625 0.1 0  0.162031 0.132368 0  0.134955 0.126405 0  0.149334 0.125568 0  0.142936 0.139597 0  0.12695 0.140259 0  0.242514 0.285501 0  0.242514 0.114499 0  0.1 0.125 0  0.117483 0.12555 0  0.11154 0.139776 0  0.121875 0.1 0  0.109143 0.1125 0  0.126805 0.114 0  0.220313 0.29129 0  0.351562 0.287369 0  0.207222 0.2866 0  0.220312 0.10871 0  0.1375 0 0  0.20625 0 0  0.207222 0.1134 0  0.11722 0.17118 0  0.1 0.1625 0  0.0778409 0.16875 0  0.0862762 0.15625 0  0 0.15375 0  0 0.1025 0  0.11722 0.22882 0  0.1 0.2375 0  0 0.3075 0  0.0862762 0.23125 0  0.0598995 0.222547 0  0.0860223 0.2125 0  0.289584 0.181469 0  0.300267 0.16446 0  0.163832 0.269071 0  0.149597 0.273325 0  0.1 0.275 0  0.268498 0.285953 0  0.31875 0.3 0  0.294154 0.254672 0  0.296875 0.3 0  0.293558 0.271845 0  0.285095 0.286799 0  0.324298 0.264316 0  0.307866 0.263745 0  0.317093 0.234901 0  0.315485 0.281219 0  0.316547 0.250625 0  0.344693 0.243731 0  0.331592 0.251147 0  0.35129 0.270663 0  0.338689 0.263683 0  0.340625 0.3 0  0.249849 0.264383 0  0.265097 0.11422 0  0.284688 0.156136 0  0.242188 0.324017 0  0.0856613 0.2625 0  0.132812 0.0612217 0  0.264062 0.0612217 0  0.198437 0.07598340000000001 0  0.0860223 0.1375 0  0.0794526 0.191089 0  0.285228 0.140397 0  0.298655 0.148737 0  0.31875 0.1 0  0.327335 0.15374 0  0.296875 0.1 0  0.312289 0.155283 0  0.313348 0.135607 0  0.321802 0.173916 0  0.298433 0.134116 0  0.112124 0.2625 0  0.127526 0.259083 0  0.121875 0.3 0  0.0682687 0.241503 0  0.1 0.2875 0  0.117762 0.28125 0  0.107813 0.3 0  0.103906 0.313849 0  0.0778409 0.28125 0  0.1375 0.41 0  0.0862762 0.29375 0  0.08886860000000001 0.24375 0  0.307812 0.338778 0  0.307812 0.292227 0  0.33216 0.279164 0  0.387888 0.266414 0  0.264063 0.31948 0  0.110937 0.07598340000000001 0  0.242188 0.07598340000000001 0  0.319914 0.11839 0  0.340625 0.1 0  0.334448 0.133793 0  0.329687 0.108539 0  0.346259 0.118491 0  0.360334 0.173636 0  0.327539 0.205033 0  0.132812 0.288712 0  0.362436 0.278836 0  0.368105 0.259418 0  0.4125 0.41 0  0.329687 0.324017 0  0.329687 0.292306 0  0.285938 0.318952 0  0.417187 0.338778 0  0.324481 0.14148 0  0.351562 0.106771 0  0.40625 0.1 0  0.341028 0.168342 0  0.319221 0.190479 0  0.335292 0.184501 0  0.305563 0.20794 0  0.220313 0.31948 0  0.132812 0.332772 0  0.0865876 0.311259 0  0.0598995 0.302453 0  0.0906541 0.343255 0  0.353543 0.255837 0  0.36574 0.237633 0  0.405007 0.254279 0  0.275795 0.352123 0  0.4125 0 0  0.35493 0.137394 0  0.366563 0.120618 0  0.35917 0.205246 0  0.198438 0.318952 0  0.0626109 0.263892 0  0.40625 0.3 0  0.354809 0.155936 0  0.386512 0.146872 0  0.373101 0.159939 0  0.384375 0.1 0  0.343394 0.19929 0  0.350682 0.185683 0  0.368101 0.189748 0  0.344016 0.221511 0  0.391108 0.213329 0  0.376279 0.204783 0  0.398843 0.182768 0  0.375804 0.222746 0  0.390665 0.196958 0  0.394004 0.23518 0  0.359883 0.222828 0  0.419908 0.204359 0  0.404243 0.204783 0  0.412615 0.224526 0  0.20625 0.41 0  0.165625 0.325257 0  0.0347982 0.244954 0  0.379558 0.247154 0  0.34165 0.147603 0  0.372264 0.136992 0  0.388988 0.121989 0  0.373437 0.108554 0  0.351562 0.31948 0  0.391367 0.16527 0  0.399572 0.223324 0  0.452011 0.227371 0  0.40877 0.239392 0  0.431491 0.237337 0  0.421224 0.250459 0  0.449619 0.262098 0  0.418865 0.276779 0  0.437063 0.252274 0  0.415673 0.263227 0  0.430988 0.266772 0  0.402767 0.273419 0  0.452967 0.244883 0  0.428125 0.3 0  0.408502 0.286186 0  0.384375 0.3 0  0.392267 0.285807 0  0.465927 0.219339 0  0.43489 0.283846 0  0.376424 0.286289 0  0.625 0.3 0  0.473533 0.205186 0  0.461713 0.255517 0  0.5375 0.3 0  0.465725 0.235405 0  0.44631 0.201425 0  0.471875 0.3 0  0.494307 0.227729 0  0.459448 0.206736 0  0.462294 0.180792 0  0.478933 0.227536 0  0.486793 0.21381 0  0.486322 0.251373 0  0.50065 0.215318 0  0.54005 0.175389 0  0.474633 0.189893 0  0.512916 0.208697 0  0.49531 0.199967 0  0.475889 0.175275 0  0.625 0.1 0  0.459311 0.153933 0  0.513645 0.242704 0  0.392892 0.248539 0  0.374815 0.271913 0  0.365974 0.14871 0  0.395312 0.109184 0  0.417061 0.123981 0  0.483196 0.277003 0  0.381967 0.179632 0  0.429898 0.219374 0  0.433473 0.206165 0  0.43149 0.181038 0  0.444208 0.215487 0  0.472985 0.247309 0  0.49375 0.3 0  0.475579 0.262714 0  0.49916 0.274293 0  0.501175 0.184809 0  0.514164 0.225681 0  0.543648 0.214977 0  0.5341630000000001 0.23481 0  0.527396 0.216171 0  0.5375 0.1 0  0.534548 0.202315 0  0.561545 0.192513 0  0.5494289999999999 0.201221 0  0.570923 0.218346 0  0.412582 0.149833 0  0.489327 0.264745 0  0.502439 0.254775 0  0.462391 0.271166 0  0.496775 0.241732 0  0.5294410000000001 0.268606 0  0.482812 0.291099 0  0.46879 0.285038 0  0.452663 0.284065 0  0.51789 0.257882 0  0.53408 0.252026 0  0.560142 0.243543 0  0.545708 0.243474 0  0.547532 0.229019 0  0.55282 0.265323 0  0.398971 0.153424 0  0.400349 0.135684 0  0.410135 0.168145 0  0.428823 0.161323 0  0.415266 0.183779 0  0.329687 0.0810483 0  0.395312 0.0612217 0  0.373437 0.318952 0  0.439062 0.324017 0  0.561816 0.229354 0  0.585029 0.239287 0  0.431827 0.139854 0  0.446796 0.168929 0  0.351562 0.07598340000000001 0  0.395313 0.318944 0  0.54337 0.150762 0  0.460937 0.31948 0  0.418412 0.137529 0  0.428125 0.1 0  0.442783 0.152332 0  0.450742 0.134294 0  0.373437 0.0805201 0  0.384383 0.342558 0  0.482812 0.318952 0  0.429239 0.127457 0  0.444274 0.117405 0  0.426548 0.113815 0  0.49375 0.1 0  0.488954 0.113984 0  0.457973 0.121842 0  0.471621 0.137346 0  0.515625 0.325257 0  0.48125 0.41 0  0.417187 0.07598340000000001 0  0.496363 0.126778 0  0.479043 0.155715 0  0.439062 0.0805201 0  0.481795 0.126919 0  0.471875 0.1 0  0.489227 0.142159 0  0.515625 0.1 0  0.520062 0.147117 0  0.501244 0.161791 0  0.505431 0.112984 0  0.505344 0.14029 0  0.526563 0.119081 0  0.5181750000000001 0.131908 0  0.539868 0.136937 0  0.460937 0.108383 0  0.474242 0.114415 0  0.460937 0.0810483 0  0.487841 0.167168 0  0.526563 0.0612217 0  0.526563 0.106406 0  0.537619 0.112743 0  0.58125 0.1 0  0.559375 0.1 0  0.482812 0.08105569999999999 0  0.471883 0.0587655 0  0.570312 0.129396 0  0.548437 0.07598340000000001 0  0.504687 0.08105569999999999 0  0.49375 0.0470127 0  0.570312 0.112663 0  0.592798 0.12103 0  0.553986 0.12103 0  0.570312 0.0805201 0  0.48125 0 0  0.114787 0.2 0  0.160769 0.284765 0  0.175816 0.288361 0  0.162602 0.116048 0  0.154687 0.07598340000000001 0  0.176562 0.0805201 0  0.0598995 0.147547 0  0.307812 0.109924 0  0.291279 0.117157 0  0.278491 0.112989 0  0.285937 0.07598340000000001 0  0.307812 0.0805201 0  0.296928 0.196743 0  0.318141 0.218507 0  0.330208 0.227509 0  0.301397 0.225668 0  0.302706 0.241401 0  0.292574 0.21424 0  0.282762 0.230935 0  0.284351 0.244775 0  0.269553 0.23261 0  0.278572 0.217242 0  0.226924 0.342606 0  0.446928 0.185396 0  0.515625 0.3 0  0.504687 0.288879 0  0.515256 0.276534 0  0.529479 0.285328 0  0.58125 0.3 0  0.541969 0.272936 0  0.559375 0.3 0  0.556796 0.282529 0  0.543473 0.287206 0  0.581429 0.267774 0  0.566728 0.271171 0  0.570869 0.255585 0  0.577404 0.283865 0  0.603125 0.3 0  0.597531 0.28035 0  0.570312 0.338778 0  0.592188 0.292492 0  0.603513 0.256094 0  0.614063 0.286265 0  0.610329 0.27064 0  0.632708 0.251285 0  0.657223 0.261594 0  0.618789 0.257807 0  0.614188 0.22987 0  0.630935 0.265614 
[...]
<PointData  Vectors="v"> 
	<DataArray  type="Float64"  Name="v"  NumberOfComponents="3" format="ascii">
0.0 0.0 0.0 0.0 0.0 0.0 0.0 0.0 0.0 0.0 0.0 0.0 0.7962276648774393 -0.19597928798731298 0.0 0.8404107317498718 0.20777292684044987 0.0 1.1692868875535034 -0.06059232990335456 0.0 1.1360150785867245 0.05472314687283853 0.0 0.0 0.0 0.0 0.0 0.0 0.0 0.0 0.0 0.0 0.0 0.0 0.0 0.0008551262728673753 0.0007943593234998349 0.0 0.00019522527949155267 0.0002024401605957112 0.0 0.00044745014108684756 0.0007872425976527322 0.0 0.0 0.0 0.0 0.0 0.0 0.0 0.0 0.0 0.0 0.0 0.0 0.0 0.0 0.0 0.0 0.0 0.0 0.0 0.0 0.0 0.0 0.0 0.0 0.0 0.0 0.0 0.0 0.0 0.0 0.0 0.0 0.0 0.0 0.0 0.0 0.0 0.0 0.0 0.0 0.0 0.0 0.0 0.0 0.0 0.0 0.0 0.0 0.0 0.0 0.0 0.0 0.0 0.0 0.0 0.0005370005037247614 -0.0009335214727004704 0.0 0.0005017218606159647 -0.0007341312233409051 0.0 0.0008444509852177362 -0.0007883762452372663 0.0 0.0 0.0 0.0 0.0 0.0 0.0 0.0 0.0 0.0 0.0 0.0 0.0 0.0 0.0 0.0 0.7613282805195266 -0.0012752634252575182 0.0 1.2755993544921267 0.0827803056561872 0.0 1.2662134727447705 -0.0775246261635466 0.0 0.0 0.0 0.0 1.3536363572625114 -0.1330176210299669 0.0 1.3582018612408913 0.15483570034420088 0.0 0.0 0.0 0.0 0.0 0.0 0.0 1.0 0.0 0.0 0.0 0.0 0.0 0.0 0.0 0.0 0.0 0.0 0.0 0.8425908302269366 -0.2318802441223345 0.0 1.1513812154930072 -0.344337084428399 0.0 0.8637844385322999 0.22931363358366852 0.0 1.166297187081774 0.3540988645234657 0.0 0.4282351754212573 -0.003960463900815009 0.0 0.16505220441722065 0.06245459324488694 0.0 0.16986262944769828 -0.06098090753459669 0.0 -0.02746143617295643 -0.03826907198401636 0.0 -0.0258373326449946 0.036298209149597985 0.0 0.33437567704822807 -0.2798327221534548 0.0 0.8578812576440787 -0.6734535426302114 0.0 0.6399851231103442 -0.6881412214661539 0.0 1.2061192221680463 -0.6132936664406963 0.0 0.41549336645882945 -0.06926025466786961 0.0 0.3304491086978732 0.2687579489699383 0.0 0.642838066910022 0.6693348892662061 0.0 1.1851636714975207 0.6153918501658614 0.0 0.40798789121130596 0.07141377583033554 0.0 1.3132602991514908 0.2608977897847299 0.0 0.3231606769793814 0.2518560000492725 0.0 1.3026255015061576 -0.240554059928729 0.0 0.31445758436409943 -0.23943034709383545 0.0 -0.033450081639116454 -0.016908415206562864 0.0 1.1248446815857507 -0.3987466514414503 0.0 1.0931772460822953 -0.7243310107013956 0.0 0.8520668505759041 0.7707556713916164 0.0 1.1313940476514812 0.39956204709781273 0.0 0.7593975809602631 0.186020448733131 0.0 0.1087376612037319 0.05142113068061453 0.0 0.7692943882219179 -0.18189727469178263 0.0 0.11116185775923608 -0.049866906060445464 0.0 -0.029501602217692092 0.019085927165888313 0.0 1.0275231476886726 0.7188927550983483 0.0 0.4423865733617553 0.5292079241528654 0.0 0.4579947025853039 0.17775766333430812 0.0 0.2710695498415333 0.06901398890895699 0.0 0.4640576733988792 -0.1735980204230674 0.0 0.27692221786718246 -0.06464779809601597 0.0 -0.07501533385839766 0.002337685661471492 0.0 0.9654874794744743 0.31741964029378134 0.0 1.260581122206404 0.31319987310173436 0.0 1.2451854488833565 0.28885744664031504 0.0 1.2348118935599723 -0.30767794097952716 0.0 1.247740616368551 -0.2810590579385813 0.0 1.2202141786676493 0.3310539666435496 0.0 1.2260495254848356 -0.3226546870161631 0.0 0.4428814590045755 -0.5445582660600644 0.0 0.8020143327409631 -0.13961921816180173 0.0 0.6715033821567925 -0.4196878851495048 0.0 0.8773763288008304 0.5938567366664557 0.0 0.799306986501481 0.14281565303362442 0.0 0.676496835205097 0.42016375304061176 0.0 1.2927878370733803 -0.007223779512029439 0.0 0.29309526764702193 0.14426509317070774 0.0 0.2945717867646773 -0.13438560035932556 0.0 -0.05427889199429667 -0.012879574727020449 0.0 1.2650845502468497 0.47183171514427485 0.0 0.7687231129317741 0.12084193545680164 0.0 1.2610907841523966 -0.47329124732696554 0.0 0.7890454527742786 -0.11563870890693793 0.0 1.2756262555821174 0.4180872481570498 0.0 1.2540233543401333 0.40114561183173025 0.0 1.2715290883160018 -0.4142407566841154 0.0 1.2446668402818566 -0.3811279385348202 0.0 0.583524415287642 -0.1605141971610335 0.0 0.7964275063964658 -0.3317981726163881 0.0 1.0104436315258793 0.6038137180853504 0.0 0.5917519547801642 0.15062234913089323 0.0 0.8125653481868427 0.33171704566694354 0.0 0.7458996454775787 0.08080889321243523 0.0 0.7825250419567453 -0.07304811348600844 0.0 0.05217789696787877 -0.022036881004106473 0.0 1.3634795946150347 0.2074535858547816 0.0 0.9298103327809779 -0.32222236011179833 0.0 1.3445537668612686 -0.19007391576513707 0.0 0.4091781401271024 0.09078553994102433 0.0 0.42697856169881854 -0.07825485483069736 0.0 -0.05452010874722141 -0.00811725008228761 0.0 1.057373516037753 0.3540135453052191 0.0 0.9431676656106761 0.39148678710931795 0.0 0.9222549075994037 0.11234740193250865 0.0 0.8241837557967963 -0.08693765467462759 0.0 1.306793006223908 0.016630390039792945 0.0 1.0274931046895237 -0.34519386264087454 0.0 1.0744682915416615 -0.5703193164619491 0.0 0.9301196147324301 -0.38938679833367784 0.0 0.9974493606618742 -0.4386439346938598 0.0 0.9329149773728823 -0.5428176181271016 0.0 0.8655210427466217 -0.406488823815296 0.0 1.2734227733113854 0.23289043811373442 0.0 1.2714845084945887 -0.21962751667755007 0.0 0.8526498340119193 -0.23562257666682884 0.0 0.8790409236102835 -0.3099443066273056 0.0 0.8528877790951241 -0.2990352929712083 0.0 0.8513997969983833 -0.25639513220676335 0.0 0.8542039509004824 -0.2527725487896447 0.0 0.8962627240282095 -0.3194590349692143 0.0 1.329269309805175 0.31561013566767454 0.0 1.0846319583874198 -0.0024470086459390757 0.0 1.3146227525516245 0.3623772154017663 0.0 1.3213065393416068 -0.2960877353582359 0.0 0.0 0.0 0.0 0.0 0.0 0.0 1.2993970122039256 -0.34948503713974227 0.0 0.7142387887350962 -0.26730298172973777 0.0 0.820387087947075 -0.21075301498760954 0.0 0.8711694249386961 -0.11074496674877843 0.0 0.8624376590507975 -0.1637571714204806 0.0 0.9375 0.0 0.0 0.7500000000000001 0.0 0.0 0.7224772125126309 0.26532171029792806 0.0 0.8240409228568256 0.20015972036279955 0.0 0.7499999999999999 0.0 0.0 0.8697189743352076 0.12783687505943292 0.0 0.928713297030498 0.04284560076296973 0.0 0.848112167512158 0.04508188307976945 0.0 -0.03484502206276931 -0.01154948295908005 0.0 0.09134212275550295 -0.017547086720051404 0.0 1.115031528072525 0.5547951128490469 0.0 1.0190266484329504 0.47316354165331687 0.0 0.8809771629183698 0.24548817378581056 0.0 1.2001165063865082 0.13904398201119758 0.0 1.328881771090011 0.0598082620704024 0.0 0.351840720168424 0.03800156038610563 0.0 1.3561695153583953 0.10287777815585084 0.0 0.7139515332062651 0.05373253692941226 0.0 1.1712006403666066 0.10021739096028341 0.0 0.5145742184899467 0.01583496620795814 0.0 0.4961686921991808 0.03003426201701209 0.0 0.06976476947042427 0.013453129912177212 0.0 0.9567016999610194 0.034519088451264196 0.0 0.25705356153816034 0.022176868794645237 0.0 0.16327292198748944 0.00853851904656579 0.0 0.267613014238969 0.014639190103779762 0.0 0.6666810621844235 -0.0048255906360128 0.0 0.4983473620740757 0.007002675859897987 0.0 1.3157860066942468 0.019295194185446653 0.0 0.5424670407645488 0.06219613058572314 0.0 1.2301653130119428 -0.1420322017984055 0.0 0.20188749487008412 -0.037555199006609044 0.0 1.2058090633239091 0.1735530748858172 0.0 0.8828274707488692 0.1797564206861862 0.0 0.7011122063787054 -0.16795219745907783 0.0 1.1155659257052677 -0.09423494920759168 0.0 1.038528463345695 -0.22376640786339907 0.0 0.8637468274063418 -0.1826420901193976 0.0 0.8754187468929289 -0.02558172760407356 0.0 0.43933121118066304 -0.04807512650053413 0.0 0.2903012822375908 -0.03305122955012183 0.0 1.328948067230084 -0.041900913581940064 0.0 0.20833246891188223 -0.013475475450548977 0.0 1.3554302106135128 -0.0863704431550391 0.0 0.19133146635837925 -0.019052186365989487 0.0 0.5354567464664249 -0.015681676333369827 0.0 -0.0016234090959378138 -0.011231033213796896 0.0 0.5721412768388671 -0.031448007766631834 0.0 0.8788984893178436 0.29717401969405416 0.0 0.8795693173618614 0.4107920328249604 0.0 0.8851021580226273 0.27034909839511556 0.0 0.9122210804918394 0.10986234914853044 0.0 0.8651845111331384 0.2233094612248305 0.0 0.9047359903201182 0.3037364816214582 0.0 0.8572445486479741 0.23353506131519045 0.0 0.8020332045389639 0.1833926059513835 0.0 0.8670588111740518 0.16154318111010169 0.0 0.0 0.0 0.0 0.8415229051325679 0.1767069868516212 0.0 0.8706590335341918 0.17104099492794878 0.0 1.2131277922860353 0.0497493218685765 0.0 1.237633418093056 0.06495532699119337 0.0 0.8902807673920313 0.013219832386012568 0.0 0.5941030911826171 -0.02600757924020673 0.0 1.279879922286518 0.14707485189957664 0.0 0.7176101453016763 -0.17371925951588424 0.0 1.1779949402824197 -0.164566787165173 0.0 0.9985802829475473 -0.019802906614913986 0.0 1.3235612016965899 -0.007732942737068525 0.0 0.5853566604853829 -0.00012845073264813121 0.0 1.2204212394094125 -0.01260292344138162 0.0 0.9834096247482278 0.009217018705282385 0.0 -0.004628787341781895 -0.007058988799267307 0.0 -0.09614864540780733 0.0011164782389338635 0.0 0.9448685320451421 0.3412438202819211 0.0 0.8778565200770898 -0.018443615360729717 0.0 0.42750900114790413 -0.008181958427552196 0.0 0.0 0.0 0.0 1.3286590683227322 0.037480486819690594 0.0 1.2126548761486757 0.0249406604865962 0.0 1.3172500730745877 0.11458070901608298 0.0 1.2523700776961644 -0.04439110159240865 0.0 0.4133869142429374 -0.013784005485136407 0.0 1.2282917084061966 0.010498217738717688 0.0 1.2911580795218789 0.05682375888623216 0.0 0.04092377060979997 -0.009843280304956641 0.0 -0.08249617276023011 -0.005181768968146929 0.0 -0.06769957801262871 -0.007519165028484564 0.0 -0.0811441490641288 0.003003211412455538 0.0 1.1858242110601382 0.21971480796687862 0.0 0.7774571077099685 0.19848213434258638 0.0 0.7779181916296909 0.154238651114211 0.0 0.785739252148336 0.10691316376875876 0.0 0.620578233412835 0.11098568377458236 0.0 0.35292965650702823 0.0014467523991235332 0.0 0.09321995704334154 0.003857764916777927 0.0 0.36472475251074865 -0.020699559686443172 0.0 1.071971767989873 0.0767215563115483 0.0 0.0 0.0 0.0 0.5197088880470796 0.011400522876807099 0.0 0.9317971039721223 0.02919653755514673 0.0 -0.10944822580081652 0.0005320811599825287 0.0 1.0970263017951616 0.26702824078855864 0.0 0.9003354793368746 0.11240433073722628 0.0 1.2803649337226286 -0.049617010982775524 0.0 0.18655947183068483 -0.003693523340448785 0.0 0.3586125067162313 0.017763884292013393 0.0 0.1428975678633739 0.00010518123794507946 0.0 1.3029334819062275 0.03922968057679464 0.0 -0.10614725833218354 -0.0016314145066726564 0.0 -0.07758021904080482 -0.006582928319467053 0.0 -0.09784236802828869 -0.004631954832170457 0.0 -0.043614497341970565 0.006983848969307202 0.0 -0.09567114079052827 0.0009307610546709444 0.0 -0.11594950251477029 -4.538321296189838e-05 0.0 -0.06695675288465788 -0.0021824611188830116 0.0 -0.04150972112969717 0.0033740223764430863 0.0 -0.11978728805911094 -0.0021665165732671506 0.0 0.07509025779116585 -0.002099991542225166 0.0 -0.038927226414965314 0.005631792814074422 0.0 -0.12322511427584913 -0.0013594279495542075 0.0 -0.12188637983068938 -0.0009159644113014686 0.0 -0.023977823636814808 -0.0026187554564206543 0.0 0.0 0.0 0.0 0.9464287298578652 0.25546095268199653 0.0 0.9513525108247164 0.04010785612070321 0.0 0.2246918182932604 -0.004457351409568985 0.0 0.3084426553288512 -0.004515428967232419 0.0 0.5441366947216578 0.020912900649127514 0.0 0.9121993871394617 0.04296609920521755 0.0 1.192017136239777 0.03454290652258009 0.0 1.3537099453669275 0.014621751832966092 0.0 0.0878892856773518 0.002131634062917336 0.0 -0.03609467834666346 -4.749554562743073e-05 0.0 0.022294354050181434 -0.012030898962906537 0.0 0.1351607803612802 -0.008901925489714637 0.0 0.12526015621247769 -0.014078709210267382 0.0 0.3152408223088155 -0.023481750061248866 0.0 0.5749761729101789 -0.051232969966699377 0.0 0.8594248231463453 -0.052630983207010276 0.0 0.36646572556986284 -0.03204689930886513 0.0 0.5550689915323477 -0.03603921793982738 0.0 0.6503589375667158 -0.04801837493442114 0.0 0.770110105167814 -0.041225879428370284 0.0 0.2587352758440759 -0.02860421434321491 0.0 1.272814660275627 -0.06477466604838772 0.0 1.0585544023020428 -0.051994955273605904 0.0 1.286566154674891 -0.02918012740721444 0.0 1.049036707907125 -0.03984697303257084 0.0 -0.04321864688683325 -0.009260053885943925 0.0 1.0270739127849111 -0.0672293733842112 0.0 1.0601756622395275 -0.03017587710720337 0.0 1.2264839744458433 -0.10281007724173435 0.0 -0.10909742061834306 -0.0026914017998659334 0.0 0.46001581307950357 -0.04602182432982937 0.0 1.2509365624410658 -0.10536035122508706 0.0 0.13109121713926314 -0.022175494421374883 0.0 -0.12225013024013967 -0.0012062995505839726 0.0 1.2614031204934957 -0.08750295716320278 0.0 0.06253790378563118 -0.021550434666420405 0.0 -0.11178602707799724 -0.0029567845615098374 0.0 -0.026447826484224637 0.009590243245387606 0.0 0.045116806625741544 -0.01816030927909329 0.0 -0.06814360371099226 -0.008517089739056391 0.0 0.4179812871533739 -0.049356639749711405 0.0 -0.04817770083277567 -0.01125890733427806 0.0 0.1125108067409174 0.029871716356209284 0.0 -0.08258971263568286 0.0052115584255560815 0.0 -0.0733214732185839 -0.006829212947002765 0.0 -0.09981536844351906 0.00011882115034078785 0.0 0.0393062958451801 0.016727674997887576 0.0 1.2159063929104832 0.10319470712810702 0.0 0.32738429335521974 0.037097155730975294 0.0 0.3036357701324881 -0.04512833475177868 0.0 0.25556179920624406 -0.010282912317212328 0.0 0.7080685806375777 -0.020695759560236577 0.0 0.3059433252658228 0.005564958689627841 0.0 1.1765650669523569 0.05292434881084388 0.0 0.8887386160042017 0.06089345122740553 0.0 0.9288894861860179 -0.08300758352996174 0.0 -0.04792995548743161 -0.004272924634852611 0.0 -0.05910543751960594 -0.0039863070990425525 0.0 -0.11927812135475863 -0.001815723194600768 0.0 -0.045901635933475037 0.0037885931457237398 0.0 -0.07986953213825528 -0.004580237098620217 0.0 0.3253562714807849 -0.0389553826226511 0.0 1.2580072493306123 -0.09357035050405887 0.0 0.6257149439202515 -0.061947723394235384 0.0 0.8931991520168249 -0.08605799672754276 0.0 -0.029046567718559478 0.012318976769600835 0.0 0.060015469992346394 -0.02338734488584998 0.0 -0.00837326227517416 -0.015286438052285883 0.0 0.20720866736705418 -0.03895320783970633 0.0 -0.017224406765532548 -0.015009538465594196 0.0 1.2534751166383997 0.10625649937894575 0.0 -0.0672946609739105 -0.0014791981053504531 0.0 -0.015004923633357117 0.010592757224648546 0.0 -0.05191898705709187 -0.00020059717418800265 0.0 0.05335332912694416 -0.021679102253503203 0.0 0.33692803812440403 0.02449086725401313 0.0 0.6875515848003038 -0.07035828690625294 0.0 0.5065940216657056 -0.06012203375062504 0.0 0.7866758306808109 -0.06857574618088959 0.0 0.2638272241671476 -0.03880956894745519 0.0 0.8183619846148064 -0.08769099329633588 0.0 1.1662124298058665 -0.09116992903262361 0.0 1.0673112824151114 -0.08382455877612899 0.0 1.0406198355257186 -0.07533574896730684 0.0 0.5911671174623697 -0.06969061966206495 0.0 0.5024239193454624 -0.06466063952373478 0.0 0.38932165602324087 -0.05735045571873491 0.0 0.3648633339320162 -0.05419601949774158 0.0 0.1429972428606299 -0.033254217952209446 0.0 0.7856595367462783 -0.08814979036942343 0.0 0.25933021942188655 0.014619560918392402 0.0 0.6065058192380234 0.037772447412134216 0.0 0.06669298099520227 0.005838054926545891 0.0 0.1712169944688347 0.017570383292829006 0.0 -0.07057923757335648 6.76258439070571e-05 0.0 1.3327474470196343 -0.024424218901253368 0.0 1.2179518490581902 0.04110780819539068 0.0 1.355161336305806 -0.01209596136451785 0.0 1.3266438912218395 -0.06323533481901361 0.0 0.16768517530928262 -0.03596209940400908 0.0 0.35535318972486196 -0.05432174234559801 0.0 0.5583844428271337 0.046612122543400254 0.0 0.08690716889390986 0.015205850333560441 0.0 1.3082366270694012 0.004058985215294561 0.0 1.348223008570617 -0.03301404740646419 0.0 0.5177590983298358 0.06834077553074558 0.0 1.3270220341700771 -0.07671175128443931 0.0 0.5882989370022451 0.043152941355343484 0.0 1.2824060897481087 0.07185259088373211 0.0 0.3324014089554322 0.03333088483324231 0.0 0.7037634563668247 0.0635613050896345 0.0 1.334731786126788 0.024127134542143772 0.0 1.2312221166979695 -0.024229579350219736 0.0 1.3176625880587143 -0.08669878171563178 0.0 0.8246341647276899 0.06123275049835892 0.0 1.047576499239737 0.0788142595330611 0.0 1.1067998326047321 0.07224000986319638 0.0 1.2668419809185485 0.09849417034699703 0.0 1.1284587469339529 0.09718422324319072 0.0 0.9745919099365739 0.08109051361232665 0.0 0.6684665792437702 0.06705685242822514 0.0 1.2732791184471874 -0.08987773392127135 0.0 0.0 0.0 0.0 1.3079910908927446 0.057766958695159354 0.0 0.916750240220342 0.0893804624874024 0.0 0.32509165371940296 0.04155287495599461 0.0 1.3159390569499114 0.07156345640486296 0.0 0.8991277124942232 0.08513396784319416 0.0 1.270697356833772 0.09121133084194877 0.0 0.5978904656153501 0.06591304845484514 0.0 1.2619448843984657 0.10366847893354489 0.0 0.5490906934093709 0.0678400136504914 0.0 0.2557629437396364 0.039753407781886047 0.0 1.146569480107095 0.1015271509391422 0.0 0.6612166183935063 0.07445896211628789 0.0 1.0723611119318746 0.10338147610547263 0.0 0.8444603625737168 0.09035913916920048 0.0 0.77567554090948 0.08860918045836172 0.0 1.1955176675276196 0.08858287142808288 0.0 1.1159386405343135 0.09172266121700309 0.0 1.3062851843121304 0.08184504626551432 0.0 0.15559159551927365 0.028330520985494878 0.0 1.1522068429845427 0.0792010371659471 0.0 1.2164642077563144 0.10658440336562469 0.0 1.1573210217361896 0.10758712539003988 0.0 1.233566535833902 0.10750660019506891 0.0 1.2436993711830422 0.10848131728963996 0.0 1.291266460345883 0.08706259056178779 0.0 1.183286135175527 0.0684469193076658 0.0 0.9450615588890566 0.10159282863925606 0.0 1.2292450744378411 0.09272109155023545 0.0 1.2790999926859328 0.09073142033823689 0.0 1.0451990817257588 0.0653036989543774 0.0 1.1623622088490815 0.10983488668941797 0.0 1.0792323634635552 0.10842985554007414 0.0 1.059681821307977 0.10627952292627488 0.0 1.2323119524941162 0.0971024588190525 0.0 0.0 0.0 0.0 0.644505704173992 -0.005576473891959698 0.0 1.077845312510182 0.4342502333887085 0.0 1.1669156103791338 0.4222584913028436 0.0 1.0822377192667445 -0.4267788003528045 0.0 0.8655955733174858 -0.22702383728074027 0.0 0.9788805296574189 -0.25552017152300893 0.0 0.8923674630902285 -0.0849857162819644 0.0 1.2228280459044767 -0.052284541014223744 0.0 1.0814423040264045 -0.0640008212932346 0.0 1.1987168888489357 -0.10446156284993491 0.0 1.2651997699012234 -0.08455749609007959 0.0 1.3153749280183895 -0.05370433468411609 0.0 -0.08313107742690559 -0.002534584769042376 0.0 -0.05033812787209273 0.00769959156415126 0.0 0.0007646663029694775 0.010041709588551839 0.0 0.0006762568937440903 0.012075789566159645 0.0 0.14668723015215682 0.02684265881944235 0.0 -0.05706181773182661 0.008236278826807244 0.0 0.06117058025116651 0.02194221971140964 0.0 0.21672480593970975 0.03713531432157456 0.0 0.08481708834381595 0.03819642144616526 0.0 -0.0360468717725508 0.01506968343328846 0.0 1.0348382618979253 0.16076768555674847 0.0 -0.0702632179592737 0.004259472277348147 0.0 1.2547189867306419 -0.10051199901546469 0.0 1.1421067203258428 -0.09824630226893068 0.0 0.9509254252641548 -0.09252270379128667 0.0 1.1041845543034527 -0.1020596729855024 0.0 1.2396238732971165 -0.1061185673045023 0.0 0.9133556862305688 -0.0953097233757493 0.0 1.2471614871239967 -0.10641252655187844 0.0 1.078038815323757 -0.10464935388579978 0.0 1.1332539254430805 -0.10469532664082344 0.0 0.8639942241981536 -0.09440674360752696 0.0 0.9076094928432606 -0.09694032567874203 0.0 0.6265182540569298 -0.07747261424281875 0.0 1.1045479842988566 -0.10703238716606506 0.0 1.2334416596603028 -0.10581642261853058 0.0 1.0691660691338203 -0.10469918588989509 0.0 1.1680599203445567 -0.08564362150821984 0.0 1.1933088081265955 -0.10804820771667892 0.0 0.6824482258802066 -0.08111846147308838 0.0 1.1412685714419635 -0.1051230711476393 0.0 0.9395524257178658 -0.09