<?xml version="1.0"?>
<VTKFile type="UnstructuredGrid"  version="0.1"  >
<UnstructuredGrid>
<Piece  NumberOfPoints="1289" NumberOfCells="2413">
<Points>
<DataArray  type="Float64"  NumberOfComponents="3"  format="ascii">0 0 0  0 0.41 0  2.2 0.41 0  2.2 0 0  0.1 0.1 0  0.1 0.3 0  0.8 0.3 0  0.8 0.1 0  0.25 0.2 0  0.248976 0.210065 0  0.245948 0.219718 0  0.241038 0.228563 0  0.234448 0.23624 0  0.226448 0.242432 0  0.217365 0.246888 0  0.207571 0.249423 0  0.197468 0.249936 0  0.187467 0.248404 0  0.17798 0.24489 0  0.169395 0.239539 0  0.162062 0.232569 0  0.156283 0.224265 0  0.152293 0.214968 0  0.150257 0.205058 0  0.150257 0.194942 0  0.152293 0.185032 0  0.156283 0.175735 0  0.162062 0.167431 0  0.169395 0.160461 0  0.17798 0.15511 0  0.187467 0.151596 0  0.197468 0.150064 0  0.207571 0.150577 0  0.217365 0.153112 0  0.226448 0.157568 0  0.234448 0.16376 0  0.241038 0.171437 0  0.245948 0.180282 0  0.248976 0.189935 0  1.1 0 0  1.1 0.41 0  0.1 0.2 0  0.45 0.1 0  0.45 0.3 0  0.55 0 0  0.275 0.1 0  0.275 0.3 0  0.275 0 0  0.55 0.41 0  0 0.205 0  0.825 0 0  0.825 0.41 0  0.275 0.41 0  0.1 0.15 0  0.1875 0.1 0  0.1 0.25 0  0.1875 0.3 0  0.132322 0.2 0  0.241426 0.253518 0  0.241426 0.146482 0  0.264574 0.17974 0  0.264574 0.22026 0  0.138434 0.187348 0  0.153372 0.150948 0  0.148413 0.164094 0  0.176495 0.136535 0  0.22768 0.143571 0  0.138434 0.212652 0  0.148413 0.235906 0  0.176495 0.263465 0  0.22768 0.256429 0  0.23125 0.3 0  0.24769 0.24094 0  0.23125 0.1 0  0.24769 0.15906 0  0.26253 0.193641 0  0.190482 0.137872 0  0.166753 0.146661 0  0.157737 0.244461 0  0.190482 0.262128 0  0.203107 0.261264 0  0.253635 0.22977 0  0.203107 0.138736 0  0.253635 0.17023 0  0.261028 0.206206 0  0.167707 0.251809 0  0.143629 0.224191 0  0.215302 0.2591 0  0.270465 0.245894 0  0.215302 0.1409 0  0.270465 0.154106 0  0.284052 0.202587 0  0.14375 0.3 0  0.209375 0.3 0  0.225966 0.278501 0  0.209375 0.1 0  0.225966 0.121499 0  0.211613 0.273759 0  0.211613 0.126241 0  0.143629 0.175809 0  0.1 0.175 0  0.133484 0.164832 0  0.144491 0.249539 0  0.1 0.225 0  0.133484 0.235168 0  0.3625 0.3 0  0.25691 0.253381 0  0.25691 0.146619 0  0.277205 0.188698 0  0.184724 0.275712 0  0.237372 0.268285 0  0.184724 0.124288 0  0.237372 0.131715 0  0.197578 0.273149 0  0.193656 0.286994 0  0.197578 0.126851 0  0.193656 0.113006 0  0.122953 0.187671 0  0.118362 0.153758 0  0.155372 0.258107 0  0.122953 0.212329 0  0.118362 0.246242 0  0.276394 0.27264 0  0.276394 0.12736 0  0.280965 0.170013 0  0.253125 0.3 0  0.14375 0.1 0  0.253125 0.1 0  0.269489 0.26014 0  0.269489 0.13986 0  0.303639 0.184297 0  0.165625 0.3 0  0.134742 0.273113 0  0.257831 0.274737 0  0.255279 0.128499 0  0.3625 0.1 0  0.165625 0.1 0  0.162031 0.132368 0  0.134955 0.126405 0  0.149334 0.125568 0  0.142936 0.139597 0  0.12695 0.140259 0  0.242514 0.285501 0  0.242514 0.114499 0  0.1 0.125 0  0.117483 0.12555 0  0.11154 0.139776 0  0.121875 0.1 0  0.109143 0.1125 0  0.126805 0.114 0  0.220313 0.29129 0  0.351562 0.287369 0  0.207222 0.2866 0  0.220312 0.10871 0  0.1375 0 0  0.20625 0 0  0.207222 0.1134 0  0.11722 0.17118 0  0.1 0.1625 0  0.0778409 0.16875 0  0.0862762 0.15625 0  0 0.15375 0  0 0.1025 0  0.11722 0.22882 0  0.1 0.2375 0  0 0.3075 0  0.0862762 0.23125 0  0.0598995 0.222547 0  0.0860223 0.2125 0  0.289584 0.181469 0  0.300267 0.16446 0  0.163832 0.269071 0  0.149597 0.273325 0  0.1 0.275 0  0.268498 0.285953 0  0.31875 0.3 0  0.294154 0.254672 0  0.296875 0.3 0  0.293558 0.271845 0  0.285095 0.286799 0  0.324298 0.264316 0  0.307866 0.263745 0  0.317093 0.234901 0  0.315485 0.281219 0  0.316547 0.250625 0  0.344693 0.243731 0  0.331592 0.251147 0  0.35129 0.270663 0  0.338689 0.263683 0  0.340625 0.3 0  0.249849 0.264383 0  0.265097 0.11422 0  0.284688 0.156136 0  0.242188 0.324017 0  0.0856613 0.2625 0  0.132812 0.0612217 0  0.264062 0.0612217 0  0.198437 0.07598340000000001 0  0.0860223 0.1375 0  0.0794526 0.191089 0  0.285228 0.140397 0  0.298655 0.148737 0  0.31875 0.1 0  0.327335 0.15374 0  0.296875 0.1 0  0.312289 0.155283 0  0.313348 0.135607 0  0.321802 0.173916 0  0.298433 0.134116 0  0.112124 0.2625 0  0.127526 0.259083 0  0.121875 0.3 0  0.0682687 0.241503 0  0.1 0.2875 0  0.117762 0.28125 0  0.107813 0.3 0  0.103906 0.313849 0  0.0778409 0.28125 0  0.1375 0.41 0  0.0862762 0.29375 0  0.08886860000000001 0.24375 0  0.307812 0.338778 0  0.307812 0.292227 0  0.33216 0.279164 0  0.387888 0.266414 0  0.264063 0.31948 0  0.110937 0.07598340000000001 0  0.242188 0.07598340000000001 0  0.319914 0.11839 0  0.340625 0.1 0  0.334448 0.133793 0  0.329687 0.108539 0  0.346259 0.118491 0  0.360334 0.173636 0  0.327539 0.205033 0  0.132812 0.288712 0  0.362436 0.278836 0  0.368105 0.259418 0  0.4125 0.41 0  0.329687 0.324017 0  0.329687 0.292306 0  0.285938 0.318952 0  0.417187 0.338778 0  0.324481 0.14148 0  0.351562 0.106771 0  0.40625 0.1 0  0.341028 0.168342 0  0.319221 0.190479 0  0.335292 0.184501 0  0.305563 0.20794 0  0.220313 0.31948 0  0.132812 0.332772 0  0.0865876 0.311259 0  0.0598995 0.302453 0  0.0906541 0.343255 0  0.353543 0.255837 0  0.36574 0.237633 0  0.405007 0.254279 0  0.275795 0.352123 0  0.4125 0 0  0.35493 0.137394 0  0.366563 0.120618 0  0.35917 0.205246 0  0.198438 0.318952 0  0.0626109 0.263892 0  0.40625 0.3 0  0.354809 0.155936 0  0.386512 0.146872 0  0.373101 0.159939 0  0.384375 0.1 0  0.343394 0.19929 0  0.350682 0.185683 0  0.368101 0.189748 0  0.344016 0.221511 0  0.391108 0.213329 0  0.376279 0.204783 0  0.398843 0.182768 0  0.375804 0.222746 0  0.390665 0.196958 0  0.394004 0.23518 0  0.359883 0.222828 0  0.419908 0.204359 0  0.404243 0.204783 0  0.412615 0.224526 0  0.20625 0.41 0  0.165625 0.325257 0  0.0347982 0.244954 0  0.379558 0.247154 0  0.34165 0.147603 0  0.372264 0.136992 0  0.388988 0.121989 0  0.373437 0.108554 0  0.351562 0.31948 0  0.391367 0.16527 0  0.399572 0.223324 0  0.452011 0.227371 0  0.40877 0.239392 0  0.431491 0.237337 0  0.421224 0.250459 0  0.449619 0.262098 0  0.418865 0.276779 0  0.437063 0.252274 0  0.415673 0.263227 0  0.430988 0.266772 0  0.402767 0.273419 0  0.452967 0.244883 0  0.428125 0.3 0  0.408502 0.286186 0  0.384375 0.3 0  0.392267 0.285807 0  0.465927 0.219339 0  0.43489 0.283846 0  0.376424 0.286289 0  0.625 0.3 0  0.473533 0.205186 0  0.461713 0.255517 0  0.5375 0.3 0  0.465725 0.235405 0  0.44631 0.201425 0  0.471875 0.3 0  0.494307 0.227729 0  0.459448 0.206736 0  0.462294 0.180792 0  0.478933 0.227536 0  0.486793 0.21381 0  0.486322 0.251373 0  0.50065 0.215318 0  0.54005 0.175389 0  0.474633 0.189893 0  0.512916 0.208697 0  0.49531 0.199967 0  0.475889 0.175275 0  0.625 0.1 0  0.459311 0.153933 0  0.513645 0.242704 0  0.392892 0.248539 0  0.374815 0.271913 0  0.365974 0.14871 0  0.395312 0.109184 0  0.417061 0.123981 0  0.483196 0.277003 0  0.381967 0.179632 0  0.429898 0.219374 0  0.433473 0.206165 0  0.43149 0.181038 0  0.444208 0.215487 0  0.472985 0.247309 0  0.49375 0.3 0  0.475579 0.262714 0  0.49916 0.274293 0  0.501175 0.184809 0  0.514164 0.225681 0  0.543648 0.214977 0  0.5341630000000001 0.23481 0  0.527396 0.216171 0  0.5375 0.1 0  0.534548 0.202315 0  0.561545 0.192513 0  0.5494289999999999 0.201221 0  0.570923 0.218346 0  0.412582 0.149833 0  0.489327 0.264745 0  0.502439 0.254775 0  0.462391 0.271166 0  0.496775 0.241732 0  0.5294410000000001 0.268606 0  0.482812 0.291099 0  0.46879 0.285038 0  0.452663 0.284065 0  0.51789 0.257882 0  0.53408 0.252026 0  0.560142 0.243543 0  0.545708 0.243474 0  0.547532 0.229019 0  0.55282 0.265323 0  0.398971 0.153424 0  0.400349 0.135684 0  0.410135 0.168145 0  0.428823 0.161323 0  0.415266 0.183779 0  0.329687 0.0810483 0  0.395312 0.0612217 0  0.373437 0.318952 0  0.439062 0.324017 0  0.561816 0.229354 0  0.585029 0.239287 0  0.431827 0.139854 0  0.446796 0.168929 0  0.351562 0.07598340000000001 0  0.395313 0.318944 0  0.54337 0.150762 0  0.460937 0.31948 0  0.418412 0.137529 0  0.428125 0.1 0  0.442783 0.152332 0  0.450742 0.134294 0  0.373437 0.0805201 0  0.384383 0.342558 0  0.482812 0.318952 0  0.429239 0.127457 0  0.444274 0.117405 0  0.426548 0.113815 0  0.49375 0.1 0  0.488954 0.113984 0  0.457973 0.121842 0  0.471621 0.137346 0  0.515625 0.325257 0  0.48125 0.41 0  0.417187 0.07598340000000001 0  0.496363 0.126778 0  0.479043 0.155715 0  0.439062 0.0805201 0  0.481795 0.126919 0  0.471875 0.1 0  0.489227 0.142159 0  0.515625 0.1 0  0.520062 0.147117 0  0.501244 0.161791 0  0.505431 0.112984 0  0.505344 0.14029 0  0.526563 0.119081 0  0.5181750000000001 0.131908 0  0.539868 0.136937 0  0.460937 0.108383 0  0.474242 0.114415 0  0.460937 0.0810483 0  0.487841 0.167168 0  0.526563 0.0612217 0  0.526563 0.106406 0  0.537619 0.112743 0  0.58125 0.1 0  0.559375 0.1 0  0.482812 0.08105569999999999 0  0.471883 0.0587655 0  0.570312 0.129396 0  0.548437 0.07598340000000001 0  0.504687 0.08105569999999999 0  0.49375 0.0470127 0  0.570312 0.112663 0  0.592798 0.12103 0  0.553986 0.12103 0  0.570312 0.0805201 0  0.48125 0 0  0.114787 0.2 0  0.160769 0.284765 0  0.175816 0.288361 0  0.162602 0.116048 0  0.154687 0.07598340000000001 0  0.176562 0.0805201 0  0.0598995 0.147547 0  0.307812 0.109924 0  0.291279 0.117157 0  0.278491 0.112989 0  0.285937 0.07598340000000001 0  0.307812 0.0805201 0  0.296928 0.196743 0  0.318141 0.218507 0  0.330208 0.227509 0  0.301397 0.225668 0  0.302706 0.241401 0  0.292574 0.21424 0  0.282762 0.230935 0  0.284351 0.244775 0  0.269553 0.23261 0  0.278572 0.217242 0  0.226924 0.342606 0  0.446928 0.185396 0  0.515625 0.3 0  0.504687 0.288879 0  0.515256 0.276534 0  0.529479 0.285328 0  0.58125 0.3 0  0.541969 0.272936 0  0.559375 0.3 0  0.556796 0.282529 0  0.543473 0.287206 0  0.581429 0.267774 0  0.566728 0.271171 0  0.570869 0.255585 0  0.577404 0.283865 0  0.603125 0.3 0  0.597531 0.28035 0  0.570312 0.338778 0  0.592188 0.292492 0  0.603513 0.256094 0  0.614063 0.286265 0  0.610329 0.27064 0  0.632708 0.251285 0  0.657223 0.261594 0  0.618789 0.257807 0  0.614188 0.22987 0  0.630935 0.265614 
[...]
<PointData  Vectors="v"> 
	<DataArray  type="Float64"  Name="v"  NumberOfComponents="3" format="ascii">
0.0 0.0 0.0 0.0 0.0 0.0 0.0 0.0 0.0 0.0 0.0 0.0 0.7962286720450616 -0.19597818163879613 0.0 0.8404097444716259 0.20777398111793166 0.0 1.1692835875742225 -0.06002862106820432 0.0 1.135932809314858 0.05522065661776679 0.0 0.0 0.0 0.0 0.0 0.0 0.0 0.0 0.0 0.0 0.0 0.0 0.0 0.0008456822918281802 0.0007776585029303067 0.0 -0.0002152219097753916 -0.0005085022241286465 0.0 0.000328511168698509 0.0005813534378329543 0.0 0.0 0.0 0.0 0.0 0.0 0.0 0.0 0.0 0.0 0.0 0.0 0.0 0.0 0.0 0.0 0.0 0.0 0.0 0.0 0.0 0.0 0.0 0.0 0.0 0.0 0.0 0.0 0.0 0.0 0.0 0.0 0.0 0.0 0.0 0.0 0.0 0.0 0.0 0.0 0.0 0.0 0.0 0.0 0.0 0.0 0.0 0.0 0.0 0.0 0.0 0.0 0.0 0.0 0.0 0.0006517016559466108 -0.0011320762658466226 0.0 0.0008976598154939628 -0.0014199547569698722 0.0 0.0008533893051708676 -0.0008043437360573947 0.0 0.0 0.0 0.0 0.0 0.0 0.0 0.0 0.0 0.0 0.0 0.0 0.0 0.0 0.0 0.0 0.7613284041242239 -0.0012753628599011181 0.0 1.2754932770202332 0.08282114517621467 0.0 1.2663320365904178 -0.0774965038866926 0.0 0.0 0.0 0.0 1.3536252083204998 -0.13302876616257706 0.0 1.3581997867757087 0.15484072035292976 0.0 0.0 0.0 0.0 0.0 0.0 0.0 1.0 0.0 0.0 0.0 0.0 0.0 0.0 0.0 0.0 0.0 0.0 0.0 0.8425918443056684 -0.23187996685159623 0.0 1.1513776346666686 -0.34432140996721466 0.0 0.8637833335718799 0.2293138764602964 0.0 1.1663001758451126 0.3541148906317323 0.0 0.428235348462968 -0.003957817898114542 0.0 0.16469007579735678 0.06232936052119025 0.0 0.17021653674063827 -0.061106210803741345 0.0 -0.0274208048640753 -0.03827184993595772 0.0 -0.02586215970232197 0.03626989288449639 0.0 0.3343757239243729 -0.2798296218233873 0.0 0.8578837763854007 -0.673448869398519 0.0 0.6399865163241371 -0.6881389437843627 0.0 1.2061288154073588 -0.6132857813333136 0.0 0.41515538930857876 -0.06936239370667947 0.0 0.3304491833266773 0.2687610492416919 0.0 0.6428367988430148 0.669337643663847 0.0 1.1851543576745645 0.6153995365257589 0.0 0.4083144891415324 0.07129668696489298 0.0 1.3132728569776306 0.26089292186583174 0.0 0.3232497028140293 0.2520546780581508 0.0 1.3026088227339228 -0.24055979093945595 0.0 0.3142531693540879 -0.2391477275121011 0.0 -0.033434358532401016 -0.016920311520892233 0.0 1.1248804878392429 -0.3987444346750216 0.0 1.0931864779393892 -0.7243293441716654 0.0 0.8520628529495207 0.7707568895644817 0.0 1.1313591973175907 0.39956413023432424 0.0 0.7593463078875248 0.18603673870343568 0.0 0.10872426097887204 0.051442983434046075 0.0 0.7693469448782407 -0.18188072633960733 0.0 0.11114964574312645 -0.04981926825798264 0.0 -0.02950009974850252 0.019064031436617133 0.0 1.027513964043476 0.7188924923592315 0.0 0.4423863796855469 0.5292106379853522 0.0 0.4581145703741905 0.17797317547088795 0.0 0.2710195340453691 0.06900146581298397 0.0 0.4639421974110041 -0.17337792211175823 0.0 0.2768646031024707 -0.06462608073357713 0.0 -0.07499742979092658 0.0023240523533452793 0.0 0.9654864845513516 0.3174263498200393 0.0 1.2605915167605732 0.3132215403573391 0.0 1.2451926921621899 0.28888418961397994 0.0 1.2347996945404685 -0.3076564594226896 0.0 1.2477266990963853 -0.28103154258941593 0.0 1.220194121241197 0.3310875700902493 0.0 1.226068518914171 -0.32261880070121235 0.0 0.44288177458465133 -0.544555767851667 0.0 0.8020147852928599 -0.1396191956973317 0.0 0.6715043437843514 -0.4196842409894098 0.0 0.8773735709908909 0.5938601302444506 0.0 0.7993065826340451 0.14281556552161212 0.0 0.6764956858183296 0.42016695651956504 0.0 1.292801029541039 -0.007199038632248518 0.0 0.2930105548237183 0.1443293281205284 0.0 0.2946172376412601 -0.13428533619310026 0.0 -0.05424845969172218 -0.012893471163657898 0.0 1.2650760616865435 0.4718508827215364 0.0 0.7687683034376428 0.12082538315192055 0.0 1.2610985189451838 -0.47327227905959246 0.0 0.7889906283761888 -0.11565087366120107 0.0 1.2756129463944457 0.41811371823955845 0.0 1.2540243168237764 0.40116730585792165 0.0 1.2715419427049275 -0.41421316724043794 0.0 1.2446649744690128 -0.3811054360696646 0.0 0.5835248466656283 -0.160512062946953 0.0 0.7964286566864255 -0.3317962743612622 0.0 1.010439026036787 0.6038191603102849 0.0 0.5917515283429499 0.15062444887972382 0.0 0.8125641480509269 0.33171881241375506 0.0 0.7458653934691011 0.08082091328418872 0.0 0.7825376610130305 -0.07302298820408054 0.0 0.05220285914913772 -0.022057302777527286 0.0 1.363504970577484 0.20746055824490456 0.0 0.9298112862447471 -0.32221556800435636 0.0 1.3445258080521727 -0.190067675139466 0.0 0.4090846727337214 0.0908215131683452 0.0 0.427012441482206 -0.0782048644007309 0.0 -0.05449276298308185 -0.008124037408131723 0.0 1.0573731186121431 0.3540246145548941 0.0 0.9431652964898551 0.3914913329498751 0.0 0.9222960263721449 0.11233142803484482 0.0 0.8241352139023156 -0.08695959495462993 0.0 1.306779233200329 0.016640952602361665 0.0 1.0274928604564408 -0.34518295809809607 0.0 1.0744733705041833 -0.5703116013990083 0.0 0.9301219307980774 -0.389381945117125 0.0 0.997452435429427 -0.43863669899690577 0.0 0.9329178348564687 -0.5428132988145201 0.0 0.8655229125790135 -0.4064858129816825 0.0 1.273374346498672 0.2328960244736863 0.0 1.2715228034585637 -0.2196258960862014 0.0 0.8526509880849813 -0.23562186346503042 0.0 0.8790424828342807 -0.3099417294412915 0.0 0.8528891919238264 -0.29903374663159904 0.0 0.8514007935364166 -0.2563915792548379 0.0 0.8542052030592295 -0.2527705615122922 0.0 0.896264271786329 -0.31945499119163445 0.0 1.3292893687247502 0.3156388754477028 0.0 1.0846351710062416 -0.0024267243250276653 0.0 1.3146280202474399 0.36240301420051074 0.0 1.321281999087892 -0.29605861266302314 0.0 0.0 0.0 0.0 0.0 0.0 0.0 1.2993893197283233 -0.3494583242054655 0.0 0.714239431333539 -0.2673014446937994 0.0 0.8203878455308187 -0.21075293750228 0.0 0.8711696891087078 -0.11074648492540132 0.0 0.862438403825093 -0.16375812354286118 0.0 0.9375 0.0 0.0 0.7500000000000001 0.0 0.0 0.7224765835402214 0.26532310749233484 0.0 0.8240401485975494 0.20015973845999654 0.0 0.7499999999999999 0.0 0.0 0.8697185457712875 0.12783582716661557 0.0 0.9287131327005872 0.042843264215476094 0.0 0.8481118882338939 0.045080671777518976 0.0 -0.03481467931075661 -0.011561960608938321 0.0 0.09136326499385518 -0.017560971528798392 0.0 1.1150262812051277 0.5548038308785518 0.0 1.0190234802810467 0.4731699814703385 0.0 0.8809760777743649 0.24548874465749793 0.0 1.2001158236653857 0.13904639520486248 0.0 1.3288856433830745 0.05981839241402777 0.0 0.3517965587698351 0.037987317292286146 0.0 1.3561814323659758 0.10288354710446648 0.0 0.7139457998370581 0.05374206191944755 0.0 1.1712065942469385 0.10022275939637186 0.0 0.5145271042681718 0.015838581193394163 0.0 0.4961138656353351 0.030031192416030156 0.0 0.06971472457177834 0.013461615991996481 0.0 0.9566992510117277 0.03452426356310425 0.0 0.2569682611358604 0.022181403414439957 0.0 0.16321674800708916 0.008559923230593482 0.0 0.2675429586868327 0.014649220633902215 0.0 0.6666464552826579 -0.004806980544935544 0.0 0.4982903684864927 0.007013919061879127 0.0 1.3157991259822464 0.019307864527525267 0.0 0.542473428346646 0.062133755505618886 0.0 1.2301336347382643 -0.14202814856843277 0.0 0.20188319243035102 -0.03755975724518346 0.0 1.2058263296592489 0.17356716337755826 0.0 0.8828265675819267 0.1797556858217224 0.0 0.701112404675026 -0.1679486701936805 0.0 1.1155532525933374 -0.09423982161715237 0.0 1.0385204058961197 -0.22375447868519074 0.0 0.8637476996493652 -0.18264263189129973 0.0 0.8754188331287905 -0.025583293480742383 0.0 0.43930558819466536 -0.048069951448787965 0.0 0.29030826456521386 -0.03304850165891008 0.0 1.3289373813850311 -0.04190141338293881 0.0 0.20834912321246093 -0.013485626660397905 0.0 1.3554024806523755 -0.08637128694093318 0.0 0.19134528991574581 -0.019062835331697465 0.0 0.5354466364188301 -0.015685363397667768 0.0 -0.0016018192353778559 -0.011234492211048745 0.0 0.572109163363221 -0.03144929995183762 0.0 0.8788969062584969 0.29717562686438503 0.0 0.8795674550059012 0.41079486082904026 0.0 0.8851011325788637 0.27035275189363744 0.0 0.9122206391593619 0.1098603863945406 0.0 0.8651834977731515 0.2233105053685955 0.0 0.904734464854246 0.30373916630527126 0.0 0.8572434358898626 0.23353690733210403 0.0 0.8020322728065943 0.18339431632490938 0.0 0.8670579393670353 0.16154226956314438 0.0 0.0 0.0 0.0 0.8415220558297506 0.17670686137474767 0.0 0.8706582991845513 0.17104024195639936 0.0 1.213140838608984 0.04975092437960074 0.0 1.2376404019000622 0.06496140916372214 0.0 0.8902779140299263 0.01322766613390296 0.0 0.5940744769304218 -0.025949128778824864 0.0 1.2798921947669586 0.14707939485785082 0.0 0.7176108005906365 -0.17371704419437278 0.0 1.1779761903818466 -0.16455603728296772 0.0 0.9985354366087792 -0.019813595290283478 0.0 1.323538590826281 -0.0077311585521071665 0.0 0.5853453255969856 -0.00013184350432193025 0.0 1.220387022150947 -0.01261587082235112 0.0 0.9833769216315987 0.009215189697455202 0.0 -0.004637122552715596 -0.007028307240113017 0.0 -0.09614203347995252 0.0011296774155202056 0.0 0.9448668855135867 0.3412487284445624 0.0 0.8778468808785105 -0.018419533395427547 0.0 0.4274591929336052 -0.008145627435968765 0.0 0.0 0.0 0.0 1.3286742325864798 0.037487302129833554 0.0 1.2126672981498114 0.02495060512052222 0.0 1.3172688143473916 0.11458725990263535 0.0 1.2524208502071226 -0.04437923847818577 0.0 0.41338755166931257 -0.01379402860777901 0.0 1.228263550800375 0.01050315156395841 0.0 1.291120569922493 0.05686852519227249 0.0 0.040934480295637315 -0.00984075049134732 0.0 -0.08247668981796089 -0.005180325018191461 0.0 -0.0676872583127009 -0.007510330093658706 0.0 -0.08113293850082565 0.0030030824257148174 0.0 1.1858369351976465 0.2197233270185582 0.0 0.7774569313860474 0.1984863515122022 0.0 0.7779173014594208 0.15423885512317637 0.0 0.7857387545945467 0.10691172213942671 0.0 0.6205773562456173 0.11098617491805618 0.0 0.3528711287336977 0.0014691847535586984 0.0 0.09318739969071602 0.003912589592032695 0.0 0.3647224875609037 -0.02058857222635552 0.0 1.0719885418325492 0.07672644637789618 0.0 0.0 0.0 0.0 0.5197012561953726 0.011398302738298493 0.0 0.9317687410726945 0.02920675057727692 0.0 -0.10945263378654183 0.0005849098861405095 0.0 1.097032887995112 0.26704158483794876 0.0 0.9003349478845222 0.11240248622899535 0.0 1.2804095811668588 -0.049571627714557906 0.0 0.1865642757008495 -0.0036876684613442877 0.0 0.35859436608903855 0.017813917619270554 0.0 0.1428801011669988 0.00014185166760317223 0.0 1.30291083726451 0.03925993329639874 0.0 -0.10614380197129653 -0.0016050110829366154 0.0 -0.07757887205618764 -0.006556200563859289 0.0 -0.0978550391446701 -0.004569648300285181 0.0 -0.043630568723120565 0.007015268621564091 0.0 -0.0956723822358402 0.0010620456600835848 0.0 -0.11595765337648546 4.502970833188036e-05 0.0 -0.06700834010586974 -0.002038743191489267 0.0 -0.041514752086934746 0.0034608032185230045 0.0 -0.11980795599749934 -0.0020373240862916965 0.0 0.07509380342921242 -0.00198325357415058 0.0 -0.038943612965642416 0.005685259069100984 0.0 -0.12323716600149803 -0.0011256914473574014 0.0 -0.12189626125237782 -0.0007378201899241812 0.0 -0.02394627595718473 -0.0024273414215510696 0.0 0.0 0.0 0.0 0.9464304834569474 0.2554698480336246 0.0 0.9513524171938401 0.040105693803173526 0.0 0.22465982724623415 -0.00439058690973825 0.0 0.3084497802885451 -0.004524882663427543 0.0 0.5441315554412054 0.020931540462200617 0.0 0.9121766015273687 0.04300343292789986 0.0 1.1919883764499508 0.034562073492061605 0.0 1.3537254665387555 0.014634898100880936 0.0 0.08784069042436954 0.0022231893197076085 0.0 -0.03608148665495634 0.00010230175239179398 0.0 0.022413045805787644 -0.011744560326541227 0.0 0.13518936557665953 -0.008750887336439379 0.0 0.1253418054434748 -0.013862348533053723 0.0 0.3152843688859108 -0.023327180788084934 0.0 0.575095323331676 -0.051081714007752035 0.0 0.8594518992037071 -0.05254547337308455 0.0 0.3665548391269156 -0.03186792585192402 0.0 0.5550811648684042 -0.035927474989032315 0.0 0.6504081744457734 -0.047895658596265975 0.0 0.7701068700192052 -0.04115288364309369 0.0 0.2588915934869168 -0.02837955033849519 0.0 1.2728924404857318 -0.06473139457933635 0.0 1.0585840572705332 -0.05193236801330922 0.0 1.2865919052523371 -0.029144956701999385 0.0 1.0490483420551318 -0.039797303394375066 0.0 -0.04310041610468172 -0.008935871313590405 0.0 1.0271502932927186 -0.06715218158653906 0.0 1.060181840837868 -0.030140042593261456 0.0 1.2262402543801927 -0.10301816273313397 0.0 -0.10907798321484824 -0.002347640126252913 0.0 0.46020309452462776 -0.045841911156267 0.0 1.2511562812787638 -0.10559079269050982 0.0 0.13128737603897953 -0.02190622167005513 0.0 -0.12226683737599035 -0.0008966737035234367 0.0 1.2615703591141119 -0.08751511811348885 0.0 0.06280231509715604 -0.021304953597831407 0.0 -0.1117717603543621 -0.002623663320360906 0.0 -0.026618651045871976 0.009902879400249068 0.0 0.04533067307827609 -0.017877527536393517 0.0 -0.06802594645515071 -0.008208468796973161 0.0 0.4182981239118644 -0.04919537993408396 0.0 -0.048012547802027655 -0.011005845375107324 0.0 0.1120607379451563 0.029745129975929624 0.0 -0.08270775205720989 0.005553054852781046 0.0 -0.07322482017521091 -0.006635592233964053 0.0 -0.09984873031665123 0.0004168988889656525 0.0 0.039060512745995785 0.017027381799446795 0.0 1.2161752271412576 0.10300360146818427 0.0 0.32715982804736204 0.037324193482440135 0.0 0.30408317084924846 -0.045053913560697094 0.0 0.2555469813233744 -0.010188420517890092 0.0 0.708040126611237 -0.020655690696781595 0.0 0.30594317847634567 0.005580688766934605 0.0 1.1765339567534783 0.052968861657597434 0.0 0.8886978966150926 0.06097493927582017 0.0 0.9291428986289109 -0.08297398216603942 0.0 -0.047962046299505165 -0.004185057689298238 0.0 -0.0590560493619785 -0.003732402477570363 0.0 -0.11928055843027896 -0.0015394478302918017 0.0 -0.04600557121542823 0.004042592108599876 0.0 -0.07981964381407598 -0.004279342686841998 0.0 0.3256027888545386 -0.0387440088612439 0.0 1.2582162342130532 -0.09364297744798174 0.0 0.6259570866856154 -0.0618217496876918 0.0 0.8935329855126083 -0.0860712261497595 0.0 -0.029276138406898584 0.012554644653433018 0.0 0.06034207359451029 -0.023253307021383497 0.0 -0.008125097134003278 -0.015412963861915345 0.0 0.2076981770477532 -0.03901428088181264 0.0 -0.01698947299648361 -0.014957132544986413 0.0 1.2532844655224138 0.10603492752432526 0.0 -0.0672858096081717 -0.0014883696176936267 0.0 -0.015195792744309518 0.010232026187730585 0.0 -0.05193901770214189 -0.0003894067514663223 0.0 0.053673711159019574 -0.02215562136378601 0.0 0.33686043568708207 0.024611833832038136 0.0 0.6878664733204126 -0.07028494778386148 0.0 0.5069984441024146 -0.060052422891697925 0.0 0.7868424548381264 -0.06847043767682678 0.0 0.2641840961024105 -0.038634818016233675 0.0 0.8188609817654545 -0.08785209839904284 0.0 1.1664310615731075 -0.09118785804269229 0.0 1.067492842421954 -0.08378579712164633 0.0 1.04074637604773 -0.07526948846360955 0.0 0.5916580693631487 -0.06973104671263913 0.0 0.5029922594932243 -0.06479198927167552 0.0 0.3899453341965229 -0.05771268591903254 0.0 0.3654500001788409 -0.054411287315864976 0.0 0.14345946412025248 -0.033442681286801834 0.0 0.7862427671380731 -0.0884559989539742 0.0 0.2592825779877873 0.01471088827674045 0.0 0.6064811643643436 0.037838048357690814 0.0 0.0666070634843718 0.005995773301675556 0.0 0.17108800165410512 0.017768924971312067 0.0 -0.07065067137625898 0.00026717809478290225 0.0 1.3327327656278096 -0.024429189521956957 0.0 1.217932540253865 0.04112247654557762 0.0 1.3551853012927653 -0.01207547230217927 0.0 1.3267222584084561 -0.06322745302576066 0.0 0.16817333830049497 -0.036326963965371294 0.0 0.3559320196069165 -0.0549319314477379 0.0 0.5582957400876234 0.04674934148374876 0.0 0.08673056701022382 0.01546815748060522 0.0 1.308231276183754 0.004058535893484579 0.0 1.3482606019031684 -0.03299002376499231 0.0 0.5171307847593225 0.06813566141187191 0.0 1.3271275122680162 -0.07673064119314046 0.0 0.5882454423318392 0.043261382032679534 0.0 1.2823427213875336 0.07190351007833146 0.0 0.3322406052206355 0.03353069954050047 0.0 0.7036301424937449 0.0637027326531347 0.0 1.3347189514685338 0.02413893580906063 0.0 1.2312521749827632 -0.02421387896288004 0.0 1.3177857533113133 -0.08675952795669509 0.0 0.8245681400763558 0.06133530502111494 0.0 1.0474766230242778 0.0789024901504441 0.0 1.1067386929988412 0.07231850315862777 0.0 1.266648448464905 0.09843613563457906 0.0 1.128223559445698 0.09717488354174451 0.0 0.9744471530920128 0.0811824480823023 0.0 0.6682316729465478 0.06719509985243553 0.0 1.2733609990145007 -0.09000585832538194 0.0 0.0 0.0 0.0 1.3079530353979745 0.05779411376333466 0.0 0.9164339967360507 0.08938959694156379 0.0 0.32477381619922435 0.041772622762227506 0.0 1.3158767733149048 0.07158641312306302 0.0 0.8988731650604485 0.0851988810719641 0.0 1.2705460643406432 0.09121582819297397 0.0 0.5975467379197424 0.06603351281068046 0.0 1.261735410272119 0.10352415563734582 0.0 0.5485694566355788 0.06781671930686094 0.0 0.25534668496077695 0.03991827180764049 0.0 1.1462874203245468 0.10144772965634984 0.0 0.6607919001177935 0.07449814300704456 0.0 1.0719876724171427 0.10320591983452446 0.0 0.8440136353464623 0.09026846144992039 0.0 0.7751093473680338 0.08838698773106637 0.0 1.1953761206798519 0.08863209083184508 0.0 1.1157470735598947 0.09176242064903518 0.0 1.3061949542741556 0.08184523141681087 0.0 0.15526120401611496 0.02858111117452427 0.0 1.1522004949166635 0.07907275389436327 0.0 1.2162036420552678 0.10639470905986996 0.0 1.1570023222920127 0.10734453292092529 0.0 1.2335366690019178 0.10718631598650831 0.0 1.2435551083266954 0.10818738288023583 0.0 1.2911588651574526 0.08702074364389678 0.0 1.1832264491196418 0.06841517288450576 0.0 0.9445658382714233 0.10116630314114158 0.0 1.2292494486468861 0.09252171256971804 0.0 1.2789884262048647 0.0906351774533512 0.0 1.045187122322036 0.06524496895146324 0.0 1.1621153349102336 0.10946368774842599 0.0 1.0789702354254278 0.10796885286853476 0.0 1.0592687889394425 0.1059517694340692 0.0 1.232361979130701 0.0968698825307393 0.0 0.0 0.0 0.0 0.6445057155499007 -0.005575214850114346 0.0 1.0778426464819555 0.43426016055970207 0.0 1.1669133485921346 0.42227276839517847 0.0 1.0822405967655742 -0.42676792824015275 0.0 0.8655944353968256 -0.22701721978323056 0.0 0.9788767456439029 -0.2555095728330971 0.0 0.8923678731433571 -0.08498773775745223 0.0 1.22280450467562 -0.05228954890947974 0.0 1.0814009868456176 -0.06400280038360728 0.0 1.1987196671631566 -0.10446117096777155 0.0 1.2651784419632508 -0.08455382092932058 0.0 1.3153644026329945 -0.05371034304739008 0.0 -0.08310699364957613 -0.002541888723151112 0.0 -0.05034870631050407 0.0077107917512777594 0.0 0.0007341181945005125 0.010061876225921655 0.0 0.0006509110179250734 0.01207434186146381 0.0 0.1466104246897474 0.02684860428489229 0.0 -0.05705953794117116 0.008227283551892712 0.0 0.061127606103868824 0.02191736187622233 0.0 0.21666650754841962 0.03710595169101253 0.0 0.08477127702997383 0.03816465601993919 0.0 -0.03605634761044737 0.015043881318562399 0.0 1.0348490140898077 0.16077648421444857 0.0 -0.0703739537774041 0.004566521483288013 0.0 1.254949101809313 -0.10066426444410864 0.0 1.1423951051621635 -0.0983385654876713 0.0 0.9513197960296103 -0.09262789359523345 0.0 1.1045474853958734 -0.1022610577593328 0.0 1.239682880419686 -0.10643295822596435 0.0 0.913853433981911 -0.09556042023224379 0.0 1.2473205784059032 -0.10670962959763458 0.0 1.078429744830355 -0.10498609441030632 0.0 1.133600938185156 -0.1049674744144787 0.0 0.8645141662294438 -0.09489312680269649 0.0 0.9081220672875718 -0.09734885989156722 0.0 0.6271513259602676 -0.0779229027744388 0.0 1.1048591521486348 -0.10743679545472712 0.0 1.2333655824565437 -0.10611267258154368 0.0 1.0694071059300254 -0.10514772085428252 0.0 1.1679489346285086 -0.08580344808315658 0.0 1.193400038850457 -0.10842232831905886 0.0 0.6829369687475441 -0.0817667817537792 0.0 1.1412775419137713 -0.1054950499556137 0.0 0.9398362087205022 -0.098