<?xml version="1.0"?>
<VTKFile type="UnstructuredGrid"  version="0.1"  >
<UnstructuredGrid>
<Piece  NumberOfPoints="1289" NumberOfCells="2413">
<Points>
<DataArray  type="Float64"  NumberOfComponents="3"  format="ascii">0 0 0  0 0.41 0  2.2 0.41 0  2.2 0 0  0.1 0.1 0  0.1 0.3 0  0.8 0.3 0  0.8 0.1 0  0.25 0.2 0  0.248976 0.210065 0  0.245948 0.219718 0  0.241038 0.228563 0  0.234448 0.23624 0  0.226448 0.242432 0  0.217365 0.246888 0  0.207571 0.249423 0  0.197468 0.249936 0  0.187467 0.248404 0  0.17798 0.24489 0  0.169395 0.239539 0  0.162062 0.232569 0  0.156283 0.224265 0  0.152293 0.214968 0  0.150257 0.205058 0  0.150257 0.194942 0  0.152293 0.185032 0  0.156283 0.175735 0  0.162062 0.167431 0  0.169395 0.160461 0  0.17798 0.15511 0  0.187467 0.151596 0  0.197468 0.150064 0  0.207571 0.150577 0  0.217365 0.153112 0  0.226448 0.157568 0  0.234448 0.16376 0  0.241038 0.171437 0  0.245948 0.180282 0  0.248976 0.189935 0  1.1 0 0  1.1 0.41 0  0.1 0.2 0  0.45 0.1 0  0.45 0.3 0  0.55 0 0  0.275 0.1 0  0.275 0.3 0  0.275 0 0  0.55 0.41 0  0 0.205 0  0.825 0 0  0.825 0.41 0  0.275 0.41 0  0.1 0.15 0  0.1875 0.1 0  0.1 0.25 0  0.1875 0.3 0  0.132322 0.2 0  0.241426 0.253518 0  0.241426 0.146482 0  0.264574 0.17974 0  0.264574 0.22026 0  0.138434 0.187348 0  0.153372 0.150948 0  0.148413 0.164094 0  0.176495 0.136535 0  0.22768 0.143571 0  0.138434 0.212652 0  0.148413 0.235906 0  0.176495 0.263465 0  0.22768 0.256429 0  0.23125 0.3 0  0.24769 0.24094 0  0.23125 0.1 0  0.24769 0.15906 0  0.26253 0.193641 0  0.190482 0.137872 0  0.166753 0.146661 0  0.157737 0.244461 0  0.190482 0.262128 0  0.203107 0.261264 0  0.253635 0.22977 0  0.203107 0.138736 0  0.253635 0.17023 0  0.261028 0.206206 0  0.167707 0.251809 0  0.143629 0.224191 0  0.215302 0.2591 0  0.270465 0.245894 0  0.215302 0.1409 0  0.270465 0.154106 0  0.284052 0.202587 0  0.14375 0.3 0  0.209375 0.3 0  0.225966 0.278501 0  0.209375 0.1 0  0.225966 0.121499 0  0.211613 0.273759 0  0.211613 0.126241 0  0.143629 0.175809 0  0.1 0.175 0  0.133484 0.164832 0  0.144491 0.249539 0  0.1 0.225 0  0.133484 0.235168 0  0.3625 0.3 0  0.25691 0.253381 0  0.25691 0.146619 0  0.277205 0.188698 0  0.184724 0.275712 0  0.237372 0.268285 0  0.184724 0.124288 0  0.237372 0.131715 0  0.197578 0.273149 0  0.193656 0.286994 0  0.197578 0.126851 0  0.193656 0.113006 0  0.122953 0.187671 0  0.118362 0.153758 0  0.155372 0.258107 0  0.122953 0.212329 0  0.118362 0.246242 0  0.276394 0.27264 0  0.276394 0.12736 0  0.280965 0.170013 0  0.253125 0.3 0  0.14375 0.1 0  0.253125 0.1 0  0.269489 0.26014 0  0.269489 0.13986 0  0.303639 0.184297 0  0.165625 0.3 0  0.134742 0.273113 0  0.257831 0.274737 0  0.255279 0.128499 0  0.3625 0.1 0  0.165625 0.1 0  0.162031 0.132368 0  0.134955 0.126405 0  0.149334 0.125568 0  0.142936 0.139597 0  0.12695 0.140259 0  0.242514 0.285501 0  0.242514 0.114499 0  0.1 0.125 0  0.117483 0.12555 0  0.11154 0.139776 0  0.121875 0.1 0  0.109143 0.1125 0  0.126805 0.114 0  0.220313 0.29129 0  0.351562 0.287369 0  0.207222 0.2866 0  0.220312 0.10871 0  0.1375 0 0  0.20625 0 0  0.207222 0.1134 0  0.11722 0.17118 0  0.1 0.1625 0  0.0778409 0.16875 0  0.0862762 0.15625 0  0 0.15375 0  0 0.1025 0  0.11722 0.22882 0  0.1 0.2375 0  0 0.3075 0  0.0862762 0.23125 0  0.0598995 0.222547 0  0.0860223 0.2125 0  0.289584 0.181469 0  0.300267 0.16446 0  0.163832 0.269071 0  0.149597 0.273325 0  0.1 0.275 0  0.268498 0.285953 0  0.31875 0.3 0  0.294154 0.254672 0  0.296875 0.3 0  0.293558 0.271845 0  0.285095 0.286799 0  0.324298 0.264316 0  0.307866 0.263745 0  0.317093 0.234901 0  0.315485 0.281219 0  0.316547 0.250625 0  0.344693 0.243731 0  0.331592 0.251147 0  0.35129 0.270663 0  0.338689 0.263683 0  0.340625 0.3 0  0.249849 0.264383 0  0.265097 0.11422 0  0.284688 0.156136 0  0.242188 0.324017 0  0.0856613 0.2625 0  0.132812 0.0612217 0  0.264062 0.0612217 0  0.198437 0.07598340000000001 0  0.0860223 0.1375 0  0.0794526 0.191089 0  0.285228 0.140397 0  0.298655 0.148737 0  0.31875 0.1 0  0.327335 0.15374 0  0.296875 0.1 0  0.312289 0.155283 0  0.313348 0.135607 0  0.321802 0.173916 0  0.298433 0.134116 0  0.112124 0.2625 0  0.127526 0.259083 0  0.121875 0.3 0  0.0682687 0.241503 0  0.1 0.2875 0  0.117762 0.28125 0  0.107813 0.3 0  0.103906 0.313849 0  0.0778409 0.28125 0  0.1375 0.41 0  0.0862762 0.29375 0  0.08886860000000001 0.24375 0  0.307812 0.338778 0  0.307812 0.292227 0  0.33216 0.279164 0  0.387888 0.266414 0  0.264063 0.31948 0  0.110937 0.07598340000000001 0  0.242188 0.07598340000000001 0  0.319914 0.11839 0  0.340625 0.1 0  0.334448 0.133793 0  0.329687 0.108539 0  0.346259 0.118491 0  0.360334 0.173636 0  0.327539 0.205033 0  0.132812 0.288712 0  0.362436 0.278836 0  0.368105 0.259418 0  0.4125 0.41 0  0.329687 0.324017 0  0.329687 0.292306 0  0.285938 0.318952 0  0.417187 0.338778 0  0.324481 0.14148 0  0.351562 0.106771 0  0.40625 0.1 0  0.341028 0.168342 0  0.319221 0.190479 0  0.335292 0.184501 0  0.305563 0.20794 0  0.220313 0.31948 0  0.132812 0.332772 0  0.0865876 0.311259 0  0.0598995 0.302453 0  0.0906541 0.343255 0  0.353543 0.255837 0  0.36574 0.237633 0  0.405007 0.254279 0  0.275795 0.352123 0  0.4125 0 0  0.35493 0.137394 0  0.366563 0.120618 0  0.35917 0.205246 0  0.198438 0.318952 0  0.0626109 0.263892 0  0.40625 0.3 0  0.354809 0.155936 0  0.386512 0.146872 0  0.373101 0.159939 0  0.384375 0.1 0  0.343394 0.19929 0  0.350682 0.185683 0  0.368101 0.189748 0  0.344016 0.221511 0  0.391108 0.213329 0  0.376279 0.204783 0  0.398843 0.182768 0  0.375804 0.222746 0  0.390665 0.196958 0  0.394004 0.23518 0  0.359883 0.222828 0  0.419908 0.204359 0  0.404243 0.204783 0  0.412615 0.224526 0  0.20625 0.41 0  0.165625 0.325257 0  0.0347982 0.244954 0  0.379558 0.247154 0  0.34165 0.147603 0  0.372264 0.136992 0  0.388988 0.121989 0  0.373437 0.108554 0  0.351562 0.31948 0  0.391367 0.16527 0  0.399572 0.223324 0  0.452011 0.227371 0  0.40877 0.239392 0  0.431491 0.237337 0  0.421224 0.250459 0  0.449619 0.262098 0  0.418865 0.276779 0  0.437063 0.252274 0  0.415673 0.263227 0  0.430988 0.266772 0  0.402767 0.273419 0  0.452967 0.244883 0  0.428125 0.3 0  0.408502 0.286186 0  0.384375 0.3 0  0.392267 0.285807 0  0.465927 0.219339 0  0.43489 0.283846 0  0.376424 0.286289 0  0.625 0.3 0  0.473533 0.205186 0  0.461713 0.255517 0  0.5375 0.3 0  0.465725 0.235405 0  0.44631 0.201425 0  0.471875 0.3 0  0.494307 0.227729 0  0.459448 0.206736 0  0.462294 0.180792 0  0.478933 0.227536 0  0.486793 0.21381 0  0.486322 0.251373 0  0.50065 0.215318 0  0.54005 0.175389 0  0.474633 0.189893 0  0.512916 0.208697 0  0.49531 0.199967 0  0.475889 0.175275 0  0.625 0.1 0  0.459311 0.153933 0  0.513645 0.242704 0  0.392892 0.248539 0  0.374815 0.271913 0  0.365974 0.14871 0  0.395312 0.109184 0  0.417061 0.123981 0  0.483196 0.277003 0  0.381967 0.179632 0  0.429898 0.219374 0  0.433473 0.206165 0  0.43149 0.181038 0  0.444208 0.215487 0  0.472985 0.247309 0  0.49375 0.3 0  0.475579 0.262714 0  0.49916 0.274293 0  0.501175 0.184809 0  0.514164 0.225681 0  0.543648 0.214977 0  0.5341630000000001 0.23481 0  0.527396 0.216171 0  0.5375 0.1 0  0.534548 0.202315 0  0.561545 0.192513 0  0.5494289999999999 0.201221 0  0.570923 0.218346 0  0.412582 0.149833 0  0.489327 0.264745 0  0.502439 0.254775 0  0.462391 0.271166 0  0.496775 0.241732 0  0.5294410000000001 0.268606 0  0.482812 0.291099 0  0.46879 0.285038 0  0.452663 0.284065 0  0.51789 0.257882 0  0.53408 0.252026 0  0.560142 0.243543 0  0.545708 0.243474 0  0.547532 0.229019 0  0.55282 0.265323 0  0.398971 0.153424 0  0.400349 0.135684 0  0.410135 0.168145 0  0.428823 0.161323 0  0.415266 0.183779 0  0.329687 0.0810483 0  0.395312 0.0612217 0  0.373437 0.318952 0  0.439062 0.324017 0  0.561816 0.229354 0  0.585029 0.239287 0  0.431827 0.139854 0  0.446796 0.168929 0  0.351562 0.07598340000000001 0  0.395313 0.318944 0  0.54337 0.150762 0  0.460937 0.31948 0  0.418412 0.137529 0  0.428125 0.1 0  0.442783 0.152332 0  0.450742 0.134294 0  0.373437 0.0805201 0  0.384383 0.342558 0  0.482812 0.318952 0  0.429239 0.127457 0  0.444274 0.117405 0  0.426548 0.113815 0  0.49375 0.1 0  0.488954 0.113984 0  0.457973 0.121842 0  0.471621 0.137346 0  0.515625 0.325257 0  0.48125 0.41 0  0.417187 0.07598340000000001 0  0.496363 0.126778 0  0.479043 0.155715 0  0.439062 0.0805201 0  0.481795 0.126919 0  0.471875 0.1 0  0.489227 0.142159 0  0.515625 0.1 0  0.520062 0.147117 0  0.501244 0.161791 0  0.505431 0.112984 0  0.505344 0.14029 0  0.526563 0.119081 0  0.5181750000000001 0.131908 0  0.539868 0.136937 0  0.460937 0.108383 0  0.474242 0.114415 0  0.460937 0.0810483 0  0.487841 0.167168 0  0.526563 0.0612217 0  0.526563 0.106406 0  0.537619 0.112743 0  0.58125 0.1 0  0.559375 0.1 0  0.482812 0.08105569999999999 0  0.471883 0.0587655 0  0.570312 0.129396 0  0.548437 0.07598340000000001 0  0.504687 0.08105569999999999 0  0.49375 0.0470127 0  0.570312 0.112663 0  0.592798 0.12103 0  0.553986 0.12103 0  0.570312 0.0805201 0  0.48125 0 0  0.114787 0.2 0  0.160769 0.284765 0  0.175816 0.288361 0  0.162602 0.116048 0  0.154687 0.07598340000000001 0  0.176562 0.0805201 0  0.0598995 0.147547 0  0.307812 0.109924 0  0.291279 0.117157 0  0.278491 0.112989 0  0.285937 0.07598340000000001 0  0.307812 0.0805201 0  0.296928 0.196743 0  0.318141 0.218507 0  0.330208 0.227509 0  0.301397 0.225668 0  0.302706 0.241401 0  0.292574 0.21424 0  0.282762 0.230935 0  0.284351 0.244775 0  0.269553 0.23261 0  0.278572 0.217242 0  0.226924 0.342606 0  0.446928 0.185396 0  0.515625 0.3 0  0.504687 0.288879 0  0.515256 0.276534 0  0.529479 0.285328 0  0.58125 0.3 0  0.541969 0.272936 0  0.559375 0.3 0  0.556796 0.282529 0  0.543473 0.287206 0  0.581429 0.267774 0  0.566728 0.271171 0  0.570869 0.255585 0  0.577404 0.283865 0  0.603125 0.3 0  0.597531 0.28035 0  0.570312 0.338778 0  0.592188 0.292492 0  0.603513 0.256094 0  0.614063 0.286265 0  0.610329 0.27064 0  0.632708 0.251285 0  0.657223 0.261594 0  0.618789 0.257807 0  0.614188 0.22987 0  0.630935 0.265614 
[...]
<PointData  Vectors="v"> 
	<DataArray  type="Float64"  Name="v"  NumberOfComponents="3" format="ascii">
0.0 0.0 0.0 0.0 0.0 0.0 0.0 0.0 0.0 0.0 0.0 0.0 0.7962371970644874 -0.19599210209493345 0.0 0.8404009125294523 0.20775946103974316 0.0 1.1680488022312476 -0.05905712452475691 0.0 1.1370992361821872 0.056247637924928755 0.0 0.0 0.0 0.0 0.0 0.0 0.0 0.0 0.0 0.0 0.0 0.0 0.0 0.0008575384287451408 0.0007983592181930357 0.0 0.00028960300579516614 0.0003659991492891892 0.0 0.0004749700079754906 0.0008348972934070397 0.0 0.0 0.0 0.0 0.0 0.0 0.0 0.0 0.0 0.0 0.0 0.0 0.0 0.0 0.0 0.0 0.0 0.0 0.0 0.0 0.0 0.0 0.0 0.0 0.0 0.0 0.0 0.0 0.0 0.0 0.0 0.0 0.0 0.0 0.0 0.0 0.0 0.0 0.0 0.0 0.0 0.0 0.0 0.0 0.0 0.0 0.0 0.0 0.0 0.0 0.0 0.0 0.0 0.0 0.0 0.00046688421679567563 -0.0008121088353694082 0.0 0.0002605054555514861 -0.00031620183587590035 0.0 0.0008386736129770741 -0.0007784127142544509 0.0 0.0 0.0 0.0 0.0 0.0 0.0 0.0 0.0 0.0 0.0 0.0 0.0 0.0 0.0 0.0 0.7613283142733865 -0.001303794999569581 0.0 1.275494560097501 0.08295856490523819 0.0 1.266327311942121 -0.07736714784625114 0.0 0.0 0.0 0.0 1.3536247309722256 -0.13299161393517026 0.0 1.3581845562197754 0.15487387660619378 0.0 0.0 0.0 0.0 0.0 0.0 0.0 1.0 0.0 0.0 0.0 0.0 0.0 0.0 0.0 0.0 0.0 0.0 0.0 0.8425998515698018 -0.23190363439285477 0.0 1.1514071526329221 -0.3443215908319726 0.0 0.863775542194179 0.2292902872619746 0.0 1.166272444118536 0.3541132711469658 0.0 0.4282349954785799 -0.003991767980920852 0.0 0.1649558627053989 0.0624176584220768 0.0 0.16988033041519632 -0.06096184581989336 0.0 -0.027413031601003876 -0.03831892483240109 0.0 -0.025885841062829335 0.036226222980981444 0.0 0.33438201083801167 -0.2798667239716148 0.0 0.8579045655582234 -0.6734748840748652 0.0 0.6400044023349809 -0.6881710789149026 0.0 1.2061580265580352 -0.6133030098992691 0.0 0.4154997362330027 -0.06907087604768705 0.0 0.3304425721225533 0.2687237506566759 0.0 0.6428193902962412 0.6693052276142586 0.0 1.1851272725441135 0.6153826061659523 0.0 0.4080677501014196 0.07153225666614677 0.0 1.3132461200102445 0.26093070141837615 0.0 0.3234856318881784 0.25205675993867827 0.0 1.3026343467063866 -0.24051098695400677 0.0 0.31417316250315086 -0.2392953971894071 0.0 -0.03343297021375576 -0.01696907353023574 0.0 1.1249080653076695 -0.3987594288881096 0.0 1.0932159365132041 -0.7243522883308862 0.0 0.852039239763662 0.7707286614923811 0.0 1.1313318802415098 0.39955016333645366 0.0 0.7593332468914326 0.18600628449231613 0.0 0.10876577397482609 0.05144626698734948 0.0 0.7693616805720109 -0.18191602798283704 0.0 0.11112912585074393 -0.04984169279089012 0.0 -0.029513245222094864 0.01902438993190926 0.0 1.0274880257790777 0.7188703525576313 0.0 0.44237152134397956 0.529174208297736 0.0 0.4579539819421142 0.17785316762122458 0.0 0.27120924371292743 0.06901213677959404 0.0 0.4641486629222123 -0.17354103220372066 0.0 0.2767886132021836 -0.0646199125080214 0.0 -0.07500608243537138 0.002245289402477528 0.0 0.9654689376130317 0.3174143250269902 0.0 1.2605571813188508 0.31323206559109135 0.0 1.2450986276475664 0.28889566639443126 0.0 1.2348353660907667 -0.30764430548178945 0.0 1.2478348951540623 -0.2810124207109206 0.0 1.2201238881316376 0.3310696467639744 0.0 1.2261487349980709 -0.32263854170320233 0.0 0.44289683467711577 -0.5445923475653195 0.0 0.8020196470477325 -0.13964713162943448 0.0 0.6715171673789584 -0.4197173010419743 0.0 0.8773538719583611 0.5938332521860213 0.0 0.7993015069418874 0.14278778114559573 0.0 0.6764824324654709 0.4201334625861452 0.0 1.2927446005418857 -0.007165914775566604 0.0 0.2931049045376143 0.1443675271335025 0.0 0.29457388895704767 -0.13428792237961173 0.0 -0.054237109933108756 -0.012964926344025253 0.0 1.2650456769184626 0.47183957393107434 0.0 0.7687235981698979 0.12090587652710373 0.0 1.2611303502547115 -0.4732836854261982 0.0 0.7890572454010711 -0.11554143535912283 0.0 1.275570121073654 0.4180980617764748 0.0 1.2539890933420528 0.4011631849478523 0.0 1.271589039085952 -0.41423042806071747 0.0 1.2447030772907395 -0.38110836873519066 0.0 0.5835302046312555 -0.1605462440140483 0.0 0.7964395492359992 -0.3318237085869353 0.0 1.010415280644615 0.603797319658144 0.0 0.5917462195536034 0.15059018757672643 0.0 0.8125532906221289 0.33169126717802994 0.0 0.7458058109503798 0.08084393015149129 0.0 0.7825818752116559 -0.07300400124242303 0.0 0.05220848795231395 -0.022117524984451967 0.0 1.3634840953195577 0.20749590335599627 0.0 0.9298289471490884 -0.3222281617639947 0.0 1.3445399478112445 -0.19002549384751288 0.0 0.4091321736257729 0.09086337285184247 0.0 0.42700835373079027 -0.07818542678308449 0.0 -0.054466295850758024 -0.00819923344349141 0.0 1.0573510124011414 0.35401663251478765 0.0 0.9431487153750874 0.39147174943816265 0.0 0.9222252049940771 0.11237280648270441 0.0 0.8242056352256097 -0.08691246243826523 0.0 1.306815437990217 0.016652089146819416 0.0 1.0275161208418722 -0.3451902971645489 0.0 1.0744981344716655 -0.5703295032128385 0.0 0.9301392589118466 -0.3894012889717904 0.0 0.9974736220923792 -0.4386536701696048 0.0 0.9329378589390298 -0.5428371978910876 0.0 0.8655373879323396 -0.4065101608527519 0.0 1.2733412221649962 0.23293042166490024 0.0 1.2715441771905849 -0.2195767333114672 0.0 0.852660030591701 -0.23564077159394092 0.0 0.8790554443314522 -0.30996140939989075 0.0 0.8529002798418314 -0.29905631573457503 0.0 0.8514142161690278 -0.2564053953260854 0.0 0.8542163915436375 -0.25278716262107565 0.0 0.8962790760842942 -0.31947185093798947 0.0 1.329241439885828 0.31565724961015457 0.0 1.0845400681203008 -0.0024055040024684618 0.0 1.31458307640137 0.36240719688302997 0.0 1.321334166069617 -0.29603358154095333 0.0 0.0 0.0 0.0 0.0 0.0 0.0 1.2994377658006333 -0.3494511316111206 0.0 0.71424694688523 -0.2673320209766028 0.0 0.8203946631718966 -0.2107785028568264 0.0 0.871172722443279 -0.11076827860605627 0.0 0.8624434396777179 -0.16378010201573193 0.0 0.9375 0.0 0.0 0.7500000000000001 0.0 0.0 0.7224692094681714 0.26529252615493704 0.0 0.8240334565656346 0.20013398774572616 0.0 0.7499999999999999 0.0 0.0 0.8697144085717736 0.1278119763683963 0.0 0.9287115037987232 0.04282649938924127 0.0 0.8481106129209366 0.04505575052910864 0.0 -0.03479318214433394 -0.011637540620814775 0.0 0.09139922530559005 -0.017616714156064705 0.0 1.1150013431409453 0.5547863810124477 0.0 1.019002467457658 0.4731516510592384 0.0 0.8809673453396363 0.24546938917952912 0.0 1.200055018799206 0.13907510052149763 0.0 1.32884854615226 0.059841990254981034 0.0 0.35185912724208257 0.037973946536804415 0.0 1.3561520205566466 0.10290957862825363 0.0 0.7138962312196482 0.05376245427176493 0.0 1.1711408774064913 0.10024804949278543 0.0 0.5144746862201003 0.015835407621150623 0.0 0.4960892064926029 0.03003138803412099 0.0 0.06969275787460785 0.013393752196223888 0.0 0.956613895735758 0.03453998538220233 0.0 0.25694217124986063 0.022148959424492846 0.0 0.16314487773985945 0.008515920373007043 0.0 0.26749031634377884 0.014617815087001875 0.0 0.666541569696733 -0.0047996159314373 0.0 0.49820878457042067 0.0070091063604584575 0.0 1.3157519882654873 0.019331381481096675 0.0 0.5424477445664456 0.062166048584522425 0.0 1.230201603302977 -0.14198605454050653 0.0 0.20186731544026354 -0.0375843695777686 0.0 1.2058141766061443 0.1735913707377541 0.0 0.8828207417821947 0.17973638064337472 0.0 0.7011257944663544 -0.16795523369129817 0.0 1.1155505543785749 -0.0942181507425418 0.0 1.0385415409624166 -0.22374697419351378 0.0 0.8637538828285486 -0.1826614430876893 0.0 0.8754194620092567 -0.025606458016898415 0.0 0.4393255795272157 -0.04804890384546446 0.0 0.2903308912509346 -0.03306372215683128 0.0 1.3289538034395738 -0.04189100998484669 0.0 0.20843723776379566 -0.013523841516497197 0.0 1.3554135556931275 -0.08635094307531034 0.0 0.1914052249473503 -0.019099642734786974 0.0 0.5355062912244992 -0.01568339274894868 0.0 -0.0015433125127352553 -0.011298301681922944 0.0 0.5721637130238351 -0.031434520785183974 0.0 0.878885758705136 0.29715344935192606 0.0 0.8795531863915902 0.41077014886476937 0.0 0.8850885002000073 0.2703382484265662 0.0 0.9122176535256338 0.10984197757942445 0.0 0.8651748421280994 0.2232943305797536 0.0 0.9047218748854902 0.303720431714468 0.0 0.8572332049970567 0.23352202143088735 0.0 0.8020232083564762 0.1833826421229458 0.0 0.8670522839311533 0.16152700542371226 0.0 0.0 0.0 0.0 0.8415155778521691 0.17669245094881905 0.0 0.8706529175421464 0.17101787520949377 0.0 1.2131515036353335 0.04977460363426608 0.0 1.2375791973090122 0.06498047573977221 0.0 0.8901907136770657 0.013239581267434075 0.0 0.593915799091538 -0.02592304395059575 0.0 1.2798891171439257 0.14711382817615043 0.0 0.7176205413940904 -0.17372735920979357 0.0 1.1779854939487509 -0.16453192369712102 0.0 0.9986047932247876 -0.019805881205222576 0.0 1.3235639964674344 -0.007724941224768304 0.0 0.5854290117170889 -0.00014031852057608916 0.0 1.2204360072965983 -0.012611622271485547 0.0 0.9834526520883319 0.009214166850372935 0.0 -0.004545688101476183 -0.007093374373119087 0.0 -0.09614209518929155 0.00104891105760654 0.0 0.9448510714120574 0.34123244412699333 0.0 0.8777312606372578 -0.018400147000381582 0.0 0.42733257940543506 -0.008152344702484028 0.0 0.0 0.0 0.0 1.3286880966719374 0.03751545662257095 0.0 1.2125976169551367 0.024970715873459295 0.0 1.3172724747049283 0.11461836214223033 0.0 1.2524833803227855 -0.044325636815539964 0.0 0.41346466485418243 -0.013808368573820867 0.0 1.2283137592241196 0.010507952993927072 0.0 1.2911667785233958 0.05692549774369942 0.0 0.04102469470767045 -0.00990184748171604 0.0 -0.08245325714774643 -0.005257117991875023 0.0 -0.06764272793379517 -0.007584409180892326 0.0 -0.08113689474749407 0.0029171189627129617 0.0 1.1858157287770685 0.21974287206641352 0.0 0.7774449979562088 0.1984783919344601 0.0 0.777911237146788 0.15422717596551305 0.0 0.7857355708531464 0.1069013566052654 0.0 0.620571144227284 0.11097840267643799 0.0 0.3527726098419922 0.0014501300506615932 0.0 0.09309423097244388 0.0038740297222377117 0.0 0.36454529164168087 -0.02054188357467438 0.0 1.0719920171789172 0.07674428389399345 0.0 0.0 0.0 0.0 0.5198168536144278 0.011377424790698821 0.0 0.931860813575255 0.029206511544273207 0.0 -0.10945970851101428 0.000514797736673719 0.0 1.0970107990479445 0.2670473814382262 0.0 0.9003318588981324 0.1123878075177848 0.0 1.2803515494007858 -0.04949790711698068 0.0 0.18669311393399193 -0.003736021922405817 0.0 0.35876748851134144 0.01779785767396517 0.0 0.14302061598198396 9.244683103136836e-05 0.0 1.302954121040655 0.03928953553170598 0.0 -0.10613252873349985 -0.0016819421509503077 0.0 -0.07752998592312915 -0.00662990654693604 0.0 -0.09781640309891648 -0.004634640195746552 0.0 -0.04366366505784997 0.0069469029978047325 0.0 -0.09571113262214911 0.0010441976879333205 0.0 -0.11596644377097344 -6.159661505974638e-06 0.0 -0.06694641541023677 -0.0020417280114452827 0.0 -0.04157661771620331 0.0034198454270568963 0.0 -0.11979615043013687 -0.002058622660210771 0.0 0.07497952681260522 -0.0019828419392490877 0.0 -0.03899692365575393 0.005627003489112854 0.0 -0.12325526958661591 -0.0010289433859951447 0.0 -0.12191230361176088 -0.0007124723143482507 0.0 -0.024027198937889255 -0.0023698576040063193 0.0 0.0 0.0 0.0 0.9464120627930169 0.25546594135624 0.0 0.9513519841577716 0.040096360651706346 0.0 0.22452890478683885 -0.00440587600271149 0.0 0.3085585875179874 -0.004558286790771643 0.0 0.5442749423356495 0.020916096073173043 0.0 0.9122982584229771 0.04302057540137488 0.0 1.1920545905651037 0.034575469242926656 0.0 1.3537349305126056 0.014666582291024981 0.0 0.08797709850741374 0.002199173284084972 0.0 -0.03615687559149842 0.00011241933101887459 0.0 0.022349559198325996 -0.011455775842699453 0.0 0.13505409829830792 -0.008705167555712942 0.0 0.12521841238794004 -0.013716442170944015 0.0 0.315107439435834 -0.023230899973505057 0.0 0.5749081892076663 -0.050873424312314244 0.0 0.8592788726546913 -0.052445023917384384 0.0 0.3663737371370943 -0.03170369787069057 0.0 0.5548854356898427 -0.03584395526725928 0.0 0.6502097979505486 -0.04776507076652151 0.0 0.7699355792971725 -0.041092441735203385 0.0 0.2587622046194507 -0.028123811425030083 0.0 1.2728529040574172 -0.06463347830870896 0.0 1.0584533757650334 -0.05185181068717022 0.0 1.2865312529740511 -0.029097201749615675 0.0 1.0489221256182228 -0.03974482994410229 0.0 -0.04312135683137897 -0.00852421736250484 0.0 1.02701085118588 -0.0670130796534586 0.0 1.0600694138434406 -0.030104342508142107 0.0 1.2267040829305584 -0.10360332646033017 0.0 -0.10908284347544075 -0.0018490734474933786 0.0 0.4600564782067775 -0.04556296182569105 0.0 1.251541296856946 -0.10560471899631875 0.0 0.13123174126330833 -0.021541243332662777 0.0 -0.1222772882191936 -0.0006263447659466899 0.0 1.261634446463332 -0.08737134976827851 0.0 0.06287668504887979 -0.020705343780319827 0.0 -0.1117925343039267 -0.0022447892813360843 0.0 -0.026606624284174697 0.010287804926627378 0.0 0.045346962791128737 -0.017375511775045104 0.0 -0.06799740284207442 -0.007612762212214796 0.0 0.41826929630310594 -0.04878896373473804 0.0 -0.04793468597935389 -0.010310438016246056 0.0 0.11164909341519695 0.030499616715082806 0.0 -0.0827272956152807 0.006057564287694011 0.0 -0.07316038354404275 -0.005829253791980206 0.0 -0.09986555511365518 0.0011111844258263695 0.0 0.039047357757192105 0.017511917899802568 0.0 1.2157654326761231 0.1024063757010534 0.0 0.3272977182299421 0.037604955033002645 0.0 0.3042958113637083 -0.0444724066794497 0.0 0.25539569252899863 -0.010178062132707007 0.0 0.70790261640198 -0.02063500908083948 0.0 0.3060913750860059 0.005544449192203009 0.0 1.1766151847592763 0.053009615064367195 0.0 0.8888572569901982 0.061051304263961624 0.0 0.9291037081560153 -0.0827166033041971 0.0 -0.047884672679529526 -0.00422805972823269 0.0 -0.05911646244495202 -0.003580831130794347 0.0 -0.1193033868900876 -0.0013630214484612903 0.0 -0.04595500651786315 0.0041974105808929955 0.0 -0.07986046599133993 -0.004034229862030958 0.0 0.3255246251482942 -0.03837817782810286 0.0 1.2583738738935815 -0.09351391020038057 0.0 0.6258463649926079 -0.06151297880619188 0.0 0.8935830787121158 -0.0857854418823644 0.0 -0.0293753480873365 0.013253004981546714 0.0 0.06054686375951521 -0.022536136736930175 0.0 -0.007835421371737837 -0.014580320267236062 0.0 0.20810359471024642 -0.03834363423709544 0.0 -0.016782493276207636 -0.014125893464041358 0.0 1.2529141812383615 0.10603295166799906 0.0 -0.06725646688021437 -0.0006082668615850727 0.0 -0.01544454250435214 0.011033908738308095 0.0 -0.05192718599705737 0.000484162307547955 0.0 0.05423581711549948 -0.02149824237426541 0.0 0.3370549482452578 0.024653377598800104 0.0 0.6878309818062279 -0.06994340618290378 0.0 0.5070732898128869 -0.059608412054643976 0.0 0.7866939705895594 -0.06823568756436171 0.0 0.26425266913856954 -0.03811600688409111 0.0 0.8191785841449084 -0.08756136382594622 0.0 1.166485703875146 -0.09099878486247667 0.0 1.0674397788146621 -0.08358242757171189 0.0 1.0406388884930982 -0.07509397564953114 0.0 0.5918646119247918 -0.06930353065853757 0.0 0.5033965374910712 -0.06433051748446711 0.0 0.39071729564265395 -0.05727677004609319 0.0 0.3660236178406943 -0.05387819609895804 0.0 0.14398458703034836 -0.03272788810301913 0.0 0.7868521734171301 -0.08824839446479342 0.0 0.25946237203400063 0.014711193978192129 0.0 0.6066629177956838 0.03785947017598992 0.0 0.0667285821191773 0.0060307088479915625 0.0 0.17123640369092308 0.017889069914145836 0.0 -0.07059911619464727 0.00033074907989093987 0.0 1.332716791098873 -0.02441488645616889 0.0 1.2179033502294487 0.04115583962248012 0.0 1.3551920089601297 -0.012032556775876883 0.0 1.3268005047976354 -0.06314197794633108 0.0 0.16885715860080508 -0.035697794654346235 0.0 0.35704522728851934 -0.05469769897330394 0.0 0.5585085111565325 0.046866143878036705 0.0 0.08681340393699802 0.01570596523556424 0.0 1.3082158916815245 0.0040726592622150936 0.0 1.3482747426006756 -0.03293474059493014 0.0 0.5166368982493348 0.0686063264781175 0.0 1.3272322319583445 -0.07663508152848719 0.0 0.5884476881455206 0.04333339645965515 0.0 1.2823808175049758 0.0720022963903178 0.0 0.3324181169989086 0.03371565601863842 0.0 0.703825344965286 0.06390077456983234 0.0 1.3347106840251017 0.024161713494406784 0.0 1.2312908541131367 -0.02417715194746011 0.0 1.3179470740182284 -0.0866772533666664 0.0 0.8247484477171043 0.06144661732820287 0.0 1.047596865527962 0.07905815589900524 0.0 1.1068521959131818 0.07242629527898725 0.0 1.2664975589563234 0.09858851452841273 0.0 1.1281788254921212 0.0974042165196241 0.0 0.9745742779261972 0.08138833177918667 0.0 0.6683824755789721 0.06749136712717087 0.0 1.2736081020721204 -0.09000353819774318 0.0 0.0 0.0 0.0 1.307919417047509 0.05785767988629263 0.0 0.9164255389145002 0.08969417964401338 0.0 0.324827893663808 0.042187620097841855 0.0 1.3158325550314893 0.07168113096957249 0.0 0.898946181220649 0.08548694174247705 0.0 1.2704862776784953 0.09137484274768201 0.0 0.5976064726721099 0.06642233662465592 0.0 1.261470395430286 0.10361898753688563 0.0 0.5483596069408402 0.06829980078578915 0.0 0.25524458304013514 0.04049286917706196 0.0 1.1461330447643703 0.10165811315729133 0.0 0.6607405168802114 0.07491197640056695 0.0 1.071705615343496 0.10339669243116299 0.0 0.8438473522384451 0.09060090021815587 0.0 0.7747028476921028 0.08868651284225329 0.0 1.1954027357287642 0.08881249546529775 0.0 1.1157716066475216 0.09198020380356241 0.0 1.3061045213739717 0.0819566398633494 0.0 0.15522248776911585 0.029110870528957243 0.0 1.1519869427296279 0.07903632701574222 0.0 1.2158895397627374 0.10649277670448858 0.0 1.1566126672245451 0.10742230463527266 0.0 1.2330238042328674 0.1068771056788903 0.0 1.2430825458101988 0.10804478743438095 0.0 1.2910014076265508 0.08712146493843531 0.0 1.1831053822271005 0.06846592126120776 0.0 0.9438197921370732 0.10113426790426794 0.0 1.2289601299997481 0.09240040466823829 0.0 1.2787753241908106 0.09069626286291324 0.0 1.045011421131716 0.06526472218192649 0.0 1.1615016968890914 0.10928381273113826 0.0 1.078119892158566 0.10761722968120843 0.0 1.0587323696165456 0.10598865998158903 0.0 1.2320369448259452 0.09662113654846807 0.0 0.0 0.0 0.0 0.6445055330961995 -0.005606136103740175 0.0 1.077819930464195 0.43424687000476614 0.0 1.166885971332881 0.4222642129483513 0.0 1.0822655695146741 -0.426780656028303 0.0 0.8656119733320798 -0.22702216584948698 0.0 0.9788984626229864 -0.25550978188025664 0.0 0.892370437837776 -0.08500254948616894 0.0 1.2228507026359694 -0.052277092167157764 0.0 1.081469016820036 -0.06398426926625377 0.0 1.1987662286233185 -0.10443161054616645 0.0 1.2651668192951788 -0.08453096116101166 0.0 1.3153436530977758 -0.05369159515142509 0.0 -0.08310096612284114 -0.00262337230153564 0.0 -0.05036399705492616 0.007631656563003921 0.0 0.0006997162776044225 0.0099959010736398 0.0 0.0006406480365168434 0.011985987208867644 0.0 0.1466207006058041 0.026790205438272333 0.0 -0.05707497519379654 0.008137465066519097 0.0 0.061149836937139955 0.021830533680974325 0.0 0.21676091982216672 0.037061451424916805 0.0 0.08483242508069326 0.038120051963858016 0.0 -0.036079085893369695 0.014958481068124562 0.0 1.0348367964404546 0.16079061822567217 0.0 -0.0703501086224558 0.004830713803306635 0.0 1.2552200653260228 -0.10058735925911358 0.0 1.1425577751382425 -0.0981568814517957 0.0 0.9515105270426384 -0.09238215774840276 0.0 1.1048877758299773 -0.1021324659358661 0.0 1.2402210307093742 -0.10673742681488811 0.0 0.9143119538728253 -0.09537759160367322 0.0 1.247812917828315 -0.10686430680025996 0.0 1.0790110923146536 -0.10500993035537183 0.0 1.1340557827594608 -0.10493928371752584 0.0 0.8654696407734997 -0.09500452452934474 0.0 0.9088680985945737 -0.09734526810826029 0.0 0.6280545615461467 -0.0777463285299269 0.0 1.1055936558018522 -0.10764088249396123 0.0 1.2339121859490796 -0.10657138091367674 0.0 1.070320918598014 -0.1055307516999211 0.0 1.1681368179815093 -0.08600662963191529 0.0 1.194076783541959 -0.10881040763582041 0.0 0.6842739810755532 -0.08201792238928787 0.0 1.1420996289737622 -0.10605416408102782 0.0 0.941010773829602