<?xml version="1.0"?>
<VTKFile type="UnstructuredGrid"  version="0.1"  >
<UnstructuredGrid>
<Piece  NumberOfPoints="1289" NumberOfCells="2413">
<Points>
<DataArray  type="Float64"  NumberOfComponents="3"  format="ascii">0 0 0  0 0.41 0  2.2 0.41 0  2.2 0 0  0.1 0.1 0  0.1 0.3 0  0.8 0.3 0  0.8 0.1 0  0.25 0.2 0  0.248976 0.210065 0  0.245948 0.219718 0  0.241038 0.228563 0  0.234448 0.23624 0  0.226448 0.242432 0  0.217365 0.246888 0  0.207571 0.249423 0  0.197468 0.249936 0  0.187467 0.248404 0  0.17798 0.24489 0  0.169395 0.239539 0  0.162062 0.232569 0  0.156283 0.224265 0  0.152293 0.214968 0  0.150257 0.205058 0  0.150257 0.194942 0  0.152293 0.185032 0  0.156283 0.175735 0  0.162062 0.167431 0  0.169395 0.160461 0  0.17798 0.15511 0  0.187467 0.151596 0  0.197468 0.150064 0  0.207571 0.150577 0  0.217365 0.153112 0  0.226448 0.157568 0  0.234448 0.16376 0  0.241038 0.171437 0  0.245948 0.180282 0  0.248976 0.189935 0  1.1 0 0  1.1 0.41 0  0.1 0.2 0  0.45 0.1 0  0.45 0.3 0  0.55 0 0  0.275 0.1 0  0.275 0.3 0  0.275 0 0  0.55 0.41 0  0 0.205 0  0.825 0 0  0.825 0.41 0  0.275 0.41 0  0.1 0.15 0  0.1875 0.1 0  0.1 0.25 0  0.1875 0.3 0  0.132322 0.2 0  0.241426 0.253518 0  0.241426 0.146482 0  0.264574 0.17974 0  0.264574 0.22026 0  0.138434 0.187348 0  0.153372 0.150948 0  0.148413 0.164094 0  0.176495 0.136535 0  0.22768 0.143571 0  0.138434 0.212652 0  0.148413 0.235906 0  0.176495 0.263465 0  0.22768 0.256429 0  0.23125 0.3 0  0.24769 0.24094 0  0.23125 0.1 0  0.24769 0.15906 0  0.26253 0.193641 0  0.190482 0.137872 0  0.166753 0.146661 0  0.157737 0.244461 0  0.190482 0.262128 0  0.203107 0.261264 0  0.253635 0.22977 0  0.203107 0.138736 0  0.253635 0.17023 0  0.261028 0.206206 0  0.167707 0.251809 0  0.143629 0.224191 0  0.215302 0.2591 0  0.270465 0.245894 0  0.215302 0.1409 0  0.270465 0.154106 0  0.284052 0.202587 0  0.14375 0.3 0  0.209375 0.3 0  0.225966 0.278501 0  0.209375 0.1 0  0.225966 0.121499 0  0.211613 0.273759 0  0.211613 0.126241 0  0.143629 0.175809 0  0.1 0.175 0  0.133484 0.164832 0  0.144491 0.249539 0  0.1 0.225 0  0.133484 0.235168 0  0.3625 0.3 0  0.25691 0.253381 0  0.25691 0.146619 0  0.277205 0.188698 0  0.184724 0.275712 0  0.237372 0.268285 0  0.184724 0.124288 0  0.237372 0.131715 0  0.197578 0.273149 0  0.193656 0.286994 0  0.197578 0.126851 0  0.193656 0.113006 0  0.122953 0.187671 0  0.118362 0.153758 0  0.155372 0.258107 0  0.122953 0.212329 0  0.118362 0.246242 0  0.276394 0.27264 0  0.276394 0.12736 0  0.280965 0.170013 0  0.253125 0.3 0  0.14375 0.1 0  0.253125 0.1 0  0.269489 0.26014 0  0.269489 0.13986 0  0.303639 0.184297 0  0.165625 0.3 0  0.134742 0.273113 0  0.257831 0.274737 0  0.255279 0.128499 0  0.3625 0.1 0  0.165625 0.1 0  0.162031 0.132368 0  0.134955 0.126405 0  0.149334 0.125568 0  0.142936 0.139597 0  0.12695 0.140259 0  0.242514 0.285501 0  0.242514 0.114499 0  0.1 0.125 0  0.117483 0.12555 0  0.11154 0.139776 0  0.121875 0.1 0  0.109143 0.1125 0  0.126805 0.114 0  0.220313 0.29129 0  0.351562 0.287369 0  0.207222 0.2866 0  0.220312 0.10871 0  0.1375 0 0  0.20625 0 0  0.207222 0.1134 0  0.11722 0.17118 0  0.1 0.1625 0  0.0778409 0.16875 0  0.0862762 0.15625 0  0 0.15375 0  0 0.1025 0  0.11722 0.22882 0  0.1 0.2375 0  0 0.3075 0  0.0862762 0.23125 0  0.0598995 0.222547 0  0.0860223 0.2125 0  0.289584 0.181469 0  0.300267 0.16446 0  0.163832 0.269071 0  0.149597 0.273325 0  0.1 0.275 0  0.268498 0.285953 0  0.31875 0.3 0  0.294154 0.254672 0  0.296875 0.3 0  0.293558 0.271845 0  0.285095 0.286799 0  0.324298 0.264316 0  0.307866 0.263745 0  0.317093 0.234901 0  0.315485 0.281219 0  0.316547 0.250625 0  0.344693 0.243731 0  0.331592 0.251147 0  0.35129 0.270663 0  0.338689 0.263683 0  0.340625 0.3 0  0.249849 0.264383 0  0.265097 0.11422 0  0.284688 0.156136 0  0.242188 0.324017 0  0.0856613 0.2625 0  0.132812 0.0612217 0  0.264062 0.0612217 0  0.198437 0.07598340000000001 0  0.0860223 0.1375 0  0.0794526 0.191089 0  0.285228 0.140397 0  0.298655 0.148737 0  0.31875 0.1 0  0.327335 0.15374 0  0.296875 0.1 0  0.312289 0.155283 0  0.313348 0.135607 0  0.321802 0.173916 0  0.298433 0.134116 0  0.112124 0.2625 0  0.127526 0.259083 0  0.121875 0.3 0  0.0682687 0.241503 0  0.1 0.2875 0  0.117762 0.28125 0  0.107813 0.3 0  0.103906 0.313849 0  0.0778409 0.28125 0  0.1375 0.41 0  0.0862762 0.29375 0  0.08886860000000001 0.24375 0  0.307812 0.338778 0  0.307812 0.292227 0  0.33216 0.279164 0  0.387888 0.266414 0  0.264063 0.31948 0  0.110937 0.07598340000000001 0  0.242188 0.07598340000000001 0  0.319914 0.11839 0  0.340625 0.1 0  0.334448 0.133793 0  0.329687 0.108539 0  0.346259 0.118491 0  0.360334 0.173636 0  0.327539 0.205033 0  0.132812 0.288712 0  0.362436 0.278836 0  0.368105 0.259418 0  0.4125 0.41 0  0.329687 0.324017 0  0.329687 0.292306 0  0.285938 0.318952 0  0.417187 0.338778 0  0.324481 0.14148 0  0.351562 0.106771 0  0.40625 0.1 0  0.341028 0.168342 0  0.319221 0.190479 0  0.335292 0.184501 0  0.305563 0.20794 0  0.220313 0.31948 0  0.132812 0.332772 0  0.0865876 0.311259 0  0.0598995 0.302453 0  0.0906541 0.343255 0  0.353543 0.255837 0  0.36574 0.237633 0  0.405007 0.254279 0  0.275795 0.352123 0  0.4125 0 0  0.35493 0.137394 0  0.366563 0.120618 0  0.35917 0.205246 0  0.198438 0.318952 0  0.0626109 0.263892 0  0.40625 0.3 0  0.354809 0.155936 0  0.386512 0.146872 0  0.373101 0.159939 0  0.384375 0.1 0  0.343394 0.19929 0  0.350682 0.185683 0  0.368101 0.189748 0  0.344016 0.221511 0  0.391108 0.213329 0  0.376279 0.204783 0  0.398843 0.182768 0  0.375804 0.222746 0  0.390665 0.196958 0  0.394004 0.23518 0  0.359883 0.222828 0  0.419908 0.204359 0  0.404243 0.204783 0  0.412615 0.224526 0  0.20625 0.41 0  0.165625 0.325257 0  0.0347982 0.244954 0  0.379558 0.247154 0  0.34165 0.147603 0  0.372264 0.136992 0  0.388988 0.121989 0  0.373437 0.108554 0  0.351562 0.31948 0  0.391367 0.16527 0  0.399572 0.223324 0  0.452011 0.227371 0  0.40877 0.239392 0  0.431491 0.237337 0  0.421224 0.250459 0  0.449619 0.262098 0  0.418865 0.276779 0  0.437063 0.252274 0  0.415673 0.263227 0  0.430988 0.266772 0  0.402767 0.273419 0  0.452967 0.244883 0  0.428125 0.3 0  0.408502 0.286186 0  0.384375 0.3 0  0.392267 0.285807 0  0.465927 0.219339 0  0.43489 0.283846 0  0.376424 0.286289 0  0.625 0.3 0  0.473533 0.205186 0  0.461713 0.255517 0  0.5375 0.3 0  0.465725 0.235405 0  0.44631 0.201425 0  0.471875 0.3 0  0.494307 0.227729 0  0.459448 0.206736 0  0.462294 0.180792 0  0.478933 0.227536 0  0.486793 0.21381 0  0.486322 0.251373 0  0.50065 0.215318 0  0.54005 0.175389 0  0.474633 0.189893 0  0.512916 0.208697 0  0.49531 0.199967 0  0.475889 0.175275 0  0.625 0.1 0  0.459311 0.153933 0  0.513645 0.242704 0  0.392892 0.248539 0  0.374815 0.271913 0  0.365974 0.14871 0  0.395312 0.109184 0  0.417061 0.123981 0  0.483196 0.277003 0  0.381967 0.179632 0  0.429898 0.219374 0  0.433473 0.206165 0  0.43149 0.181038 0  0.444208 0.215487 0  0.472985 0.247309 0  0.49375 0.3 0  0.475579 0.262714 0  0.49916 0.274293 0  0.501175 0.184809 0  0.514164 0.225681 0  0.543648 0.214977 0  0.5341630000000001 0.23481 0  0.527396 0.216171 0  0.5375 0.1 0  0.534548 0.202315 0  0.561545 0.192513 0  0.5494289999999999 0.201221 0  0.570923 0.218346 0  0.412582 0.149833 0  0.489327 0.264745 0  0.502439 0.254775 0  0.462391 0.271166 0  0.496775 0.241732 0  0.5294410000000001 0.268606 0  0.482812 0.291099 0  0.46879 0.285038 0  0.452663 0.284065 0  0.51789 0.257882 0  0.53408 0.252026 0  0.560142 0.243543 0  0.545708 0.243474 0  0.547532 0.229019 0  0.55282 0.265323 0  0.398971 0.153424 0  0.400349 0.135684 0  0.410135 0.168145 0  0.428823 0.161323 0  0.415266 0.183779 0  0.329687 0.0810483 0  0.395312 0.0612217 0  0.373437 0.318952 0  0.439062 0.324017 0  0.561816 0.229354 0  0.585029 0.239287 0  0.431827 0.139854 0  0.446796 0.168929 0  0.351562 0.07598340000000001 0  0.395313 0.318944 0  0.54337 0.150762 0  0.460937 0.31948 0  0.418412 0.137529 0  0.428125 0.1 0  0.442783 0.152332 0  0.450742 0.134294 0  0.373437 0.0805201 0  0.384383 0.342558 0  0.482812 0.318952 0  0.429239 0.127457 0  0.444274 0.117405 0  0.426548 0.113815 0  0.49375 0.1 0  0.488954 0.113984 0  0.457973 0.121842 0  0.471621 0.137346 0  0.515625 0.325257 0  0.48125 0.41 0  0.417187 0.07598340000000001 0  0.496363 0.126778 0  0.479043 0.155715 0  0.439062 0.0805201 0  0.481795 0.126919 0  0.471875 0.1 0  0.489227 0.142159 0  0.515625 0.1 0  0.520062 0.147117 0  0.501244 0.161791 0  0.505431 0.112984 0  0.505344 0.14029 0  0.526563 0.119081 0  0.5181750000000001 0.131908 0  0.539868 0.136937 0  0.460937 0.108383 0  0.474242 0.114415 0  0.460937 0.0810483 0  0.487841 0.167168 0  0.526563 0.0612217 0  0.526563 0.106406 0  0.537619 0.112743 0  0.58125 0.1 0  0.559375 0.1 0  0.482812 0.08105569999999999 0  0.471883 0.0587655 0  0.570312 0.129396 0  0.548437 0.07598340000000001 0  0.504687 0.08105569999999999 0  0.49375 0.0470127 0  0.570312 0.112663 0  0.592798 0.12103 0  0.553986 0.12103 0  0.570312 0.0805201 0  0.48125 0 0  0.114787 0.2 0  0.160769 0.284765 0  0.175816 0.288361 0  0.162602 0.116048 0  0.154687 0.07598340000000001 0  0.176562 0.0805201 0  0.0598995 0.147547 0  0.307812 0.109924 0  0.291279 0.117157 0  0.278491 0.112989 0  0.285937 0.07598340000000001 0  0.307812 0.0805201 0  0.296928 0.196743 0  0.318141 0.218507 0  0.330208 0.227509 0  0.301397 0.225668 0  0.302706 0.241401 0  0.292574 0.21424 0  0.282762 0.230935 0  0.284351 0.244775 0  0.269553 0.23261 0  0.278572 0.217242 0  0.226924 0.342606 0  0.446928 0.185396 0  0.515625 0.3 0  0.504687 0.288879 0  0.515256 0.276534 0  0.529479 0.285328 0  0.58125 0.3 0  0.541969 0.272936 0  0.559375 0.3 0  0.556796 0.282529 0  0.543473 0.287206 0  0.581429 0.267774 0  0.566728 0.271171 0  0.570869 0.255585 0  0.577404 0.283865 0  0.603125 0.3 0  0.597531 0.28035 0  0.570312 0.338778 0  0.592188 0.292492 0  0.603513 0.256094 0  0.614063 0.286265 0  0.610329 0.27064 0  0.632708 0.251285 0  0.657223 0.261594 0  0.618789 0.257807 0  0.614188 0.22987 0  0.630935 0.265614 
[...]
<PointData  Vectors="v"> 
	<DataArray  type="Float64"  Name="v"  NumberOfComponents="3" format="ascii">
0.0 0.0 0.0 0.0 0.0 0.0 0.0 0.0 0.0 0.0 0.0 0.0 0.7962295665793364 -0.1959831768481874 0.0 0.8404087673548442 0.20776891208248086 0.0 1.169053745460557 -0.06050417026042623 0.0 1.1362575909310708 0.054854194794183964 0.0 0.0 0.0 0.0 0.0 0.0 0.0 0.0 0.0 0.0 0.0 0.0 0.0 0.0008607399342967415 0.0008043601139066026 0.0 0.0004431160415562833 0.0006318608836929225 0.0 0.0005193269661857322 0.0009116764818139247 0.0 0.0 0.0 0.0 0.0 0.0 0.0 0.0 0.0 0.0 0.0 0.0 0.0 0.0 0.0 0.0 0.0 0.0 0.0 0.0 0.0 0.0 0.0 0.0 0.0 0.0 0.0 0.0 0.0 0.0 0.0 0.0 0.0 0.0 0.0 0.0 0.0 0.0 0.0 0.0 0.0 0.0 0.0 0.0 0.0 0.0 0.0 0.0 0.0 0.0 0.0 0.0 0.0 0.0 0.0 0.0004561595217476531 -0.000793571772735088 0.0 0.00022291802260867026 -0.0002511876164885233 0.0 0.0008379664411041038 -0.0007769844813487934 0.0 0.0 0.0 0.0 0.0 0.0 0.0 0.0 0.0 0.0 0.0 0.0 0.0 0.0 0.0 0.0 0.7613282345568935 -0.001282485943905455 0.0 1.2756343074551946 0.08282878794633097 0.0 1.2661719668962172 -0.07747351536249439 0.0 0.0 0.0 0.0 1.3536372089167874 -0.13300929926020755 0.0 1.3581976632180595 0.1548380138698031 0.0 0.0 0.0 0.0 0.0 0.0 0.0 1.0 0.0 0.0 0.0 0.0 0.0 0.0 0.0 0.0 0.0 0.0 0.0 0.8425925922068421 -0.23188636511462732 0.0 1.1513895291062577 -0.3443420757802278 0.0 0.8637827770284565 0.2293075513708811 0.0 1.1662894233971794 0.3540937462105344 0.0 0.4282350394968789 -0.003969914250484873 0.0 0.16522133973720285 0.06251544429651378 0.0 0.16967282250380095 -0.06090554056981608 0.0 -0.027464548099150825 -0.038277396901028354 0.0 -0.025827297291691097 0.03627804426780581 0.0 0.3343772822759334 -0.2798431344896364 0.0 0.8578858266364053 -0.6734616093223615 0.0 0.6399892932723585 -0.6881501365749776 0.0 1.2061237682316337 -0.6133004314140559 0.0 0.41567140968080135 -0.06915432260933063 0.0 0.330447393327967 0.26874749227586914 0.0 0.6428339631694369 0.6693257838490333 0.0 1.1851594165684418 0.6153853205785738 0.0 0.4078301645842019 0.07151144924419506 0.0 1.3132506956810748 0.2609076995143918 0.0 0.32308866407647013 0.2517200366180744 0.0 1.3026358089281616 -0.24054157125213396 0.0 0.3144297662097923 -0.2395023441002133 0.0 -0.033445838328728036 -0.01692023341173491 0.0 1.1248409851974244 -0.39875099999093916 0.0 1.0931820265450822 -0.7243373874848139 0.0 0.852061930769567 0.7707480730586636 0.0 1.1313970086118577 0.3995579050158143 0.0 0.7594087492646658 0.18600808760912488 0.0 0.10873426101761352 0.05139938943285049 0.0 0.7692826221093164 -0.1819106202093915 0.0 0.11114357433613614 -0.04987930249263719 0.0 -0.029497209276131333 0.019069611071370677 0.0 1.027519116874069 0.7188871436323702 0.0 0.4423828146048733 0.5291977974981541 0.0 0.4579186341919003 0.17766637488524878 0.0 0.2710488742929371 0.06899825037599007 0.0 0.4641418279309249 -0.17369847607434818 0.0 0.27686963320968505 -0.06464464592752295 0.0 -0.07500318073442584 0.002306903145552326 0.0 0.9654833328192992 0.31741462968774664 0.0 1.2605698562478738 0.3131960604068391 0.0 1.245160864663303 0.28885362230324957 0.0 1.2348239472256475 -0.30768172305144914 0.0 1.2477694021975025 -0.28106158881995774 0.0 1.2202020127723174 0.3310403392415683 0.0 1.2260632501858526 -0.32266941995223075 0.0 0.44288522923096674 -0.5445683790287931 0.0 0.8020154537565279 -0.13962635056167047 0.0 0.6715063869832241 -0.4196974032299244 0.0 0.8773720854195209 0.5938488933107849 0.0 0.7993058186030219 0.14280859410139413 0.0 0.6764937799000944 0.42015427739042727 0.0 1.2927520645718829 -0.007214259795303833 0.0 0.2931008498172984 0.14421805165863327 0.0 0.29452272530093637 -0.13439308794621344 0.0 -0.054269545386020954 -0.012902281671912793 0.0 1.2650792739911627 0.4718233785457487 0.0 0.7687038472696737 0.12087069711460839 0.0 1.2610964754075116 -0.4732997941505417 0.0 0.7890734707275626 -0.11560677324393455 0.0 1.2756191276249362 0.4180758448020562 0.0 1.2540143108389294 0.40113835291399547 0.0 1.2715369001125527 -0.41425301593037533 0.0 1.2446767156425365 -0.38113545669664217 0.0 0.5835256722384746 -0.16052354590746695 0.0 0.7964299566513621 -0.3318057328808386 0.0 1.010438880541349 0.6038065730250118 0.0 0.5917507241884843 0.15061299676067574 0.0 0.8125629296785909 0.33170952164422335 0.0 0.7458953392252824 0.08080046909240494 0.0 0.782518325742777 -0.07304999253797458 0.0 0.052162845279115654 -0.022052036967339126 0.0 1.3634679344271516 0.2074578947674158 0.0 0.9298145190365248 -0.32222768961117865 0.0 1.3445636945562445 -0.19006731559544177 0.0 0.40918389892015633 0.09076210469313986 0.0 0.4269448494899262 -0.07825546424805577 0.0 -0.05450513856801663 -0.008154312364488029 0.0 1.0573680401700996 0.3540082874260365 0.0 0.9431641360030827 0.39148049658454404 0.0 0.9222307809717284 0.11235795060965739 0.0 0.8242083691694688 -0.086919387415716 0.0 1.3068156990465536 0.016627521518725156 0.0 1.0274989919022046 -0.3451991478962247 0.0 1.0744730768423303 -0.5703262267525063 0.0 0.9301233452693803 -0.38939319732015476 0.0 0.9974538246105963 -0.4386504547909858 0.0 0.9329192407807829 -0.5428250264721604 0.0 0.8655241917438055 -0.40649594156671026 0.0 1.273430596581056 0.23289629004127496 0.0 1.2714761890073958 -0.21961626714522964 0.0 0.8526518201566818 -0.23562761873684052 0.0 0.8790437817072672 -0.3099501024940746 0.0 0.8528902072802395 -0.2990415099750546 0.0 0.8514029369555369 -0.2563997477234245 0.0 0.8542064578531783 -0.25277738443865444 0.0 0.8962660486108941 -0.31946456630313336 0.0 1.3292523315942761 0.3156066546475646 0.0 1.0845850336244147 -0.002446915088898412 0.0 1.3146102368526957 0.36237097833812953 0.0 1.321325647237998 -0.296090313503063 0.0 0.0 0.0 0.0 0.0 0.0 0.0 1.2994108317892668 -0.3494912030100584 0.0 0.7142405296942876 -0.2673112324484471 0.0 0.8203886228573812 -0.2107595598614424 0.0 0.8711701327228707 -0.11075009740549585 0.0 0.862438742396352 -0.16376250863984668 0.0 0.9375 0.0 0.0 0.7500000000000001 0.0 0.0 0.7224755172686403 0.26531351161987343 0.0 0.8240394465450364 0.200153151469086 0.0 0.7499999999999999 0.0 0.0 0.8697180506641206 0.12783108671601004 0.0 0.9287129363736895 0.04284196661427087 0.0 0.8481119314155172 0.04507586943452486 0.0 -0.03483672261303439 -0.01157853697900307 0.0 0.09133094996911083 -0.017572402529026417 0.0 1.1150266858931754 0.5547881613839889 0.0 1.0190222171515197 0.47315702333829923 0.0 0.8809752581005201 0.2454830732772162 0.0 1.2001042458171531 0.1390448604422999 0.0 1.3288628985196749 0.05980884082561005 0.0 0.3518077372428324 0.037984801468731955 0.0 1.3561543353884409 0.10287811990291984 0.0 0.713926571169344 0.05372165792771233 0.0 1.1711825283361794 0.10021501920718713 0.0 0.5145323869927261 0.015818744959040267 0.0 0.49613912990458175 0.030020178615655542 0.0 0.06973907370663367 0.013420802306660509 0.0 0.9566709137844237 0.03451318487091052 0.0 0.2570178319030804 0.02215250526923793 0.0 0.16322380428200362 0.008508744528684834 0.0 0.2675658414261105 0.014614333488566786 0.0 0.6666240832190943 -0.0048360532468315265 0.0 0.4982977854732664 0.006985804784408882 0.0 1.315757066145572 0.019299412654468363 0.0 0.5424652967998609 0.06222376533380912 0.0 1.2301847535425563 -0.14202334914145523 0.0 0.20185163909237638 -0.037561999527362534 0.0 1.205800716514643 0.17355370615385168 0.0 0.8828262511677937 0.17975169766567792 0.0 0.7011155733320673 -0.16795503634625736 0.0 1.1155702093763284 -0.09423051580024049 0.0 1.0385360779061954 -0.22376865072607724 0.0 0.86374816735542 -0.18264673619249241 0.0 0.8754188923577374 -0.02558719538580524 0.0 0.4393127388445622 -0.048069554059282114 0.0 0.2902716675826978 -0.0330625504509542 0.0 1.3289550890822808 -0.04190585916889451 0.0 0.20833263415378508 -0.013504983778859647 0.0 1.3554379403318901 -0.08637123034895859 0.0 0.19132064264395704 -0.01907596944498037 0.0 0.5354489287644955 -0.015690336476144772 0.0 -0.001609594377061758 -0.011271872380842091 0.0 0.5721390438030862 -0.03144821790055704 0.0 0.8788961120707234 0.29716791135455506 0.0 0.8795662208861578 0.4107849289887303 0.0 0.8850992326340259 0.2703443500590851 0.0 0.9122204520699995 0.10985819232408879 0.0 0.8651826021319176 0.2233050320774125 0.0 0.9047332312904565 0.3037309415715593 0.0 0.8572422635518109 0.23353072995764498 0.0 0.802031160907444 0.18338912751448122 0.0 0.8670576218446217 0.16153952745967828 0.0 0.0 0.0 0.0 0.8415214980239649 0.1767033311104588 0.0 0.8706578791280838 0.17103550157239103 0.0 1.2131230726073388 0.0497550207124901 0.0 1.2376103758859556 0.06495275051984703 0.0 0.8902394232760714 0.01321329756628441 0.0 0.5940138196009423 -0.02600960970642253 0.0 1.2798743073168264 0.14707955614218593 0.0 0.7176124610310136 -0.17372257549889783 0.0 1.1780027198526943 -0.16456557297024735 0.0 0.9985966353507626 -0.019808247629376077 0.0 1.3235776598266957 -0.007738706768574049 0.0 0.5853607348577781 -0.0001460203703069166 0.0 1.2204386577853534 -0.012608065309012016 0.0 0.9834305739859097 0.009205387551262203 0.0 -0.0046022431086094615 -0.007108024214758259 0.0 -0.09614012462660844 0.0010722175611186243 0.0 0.9448650000922966 0.34123825935044116 0.0 0.8777950115164037 -0.01844501760083508 0.0 0.4274359551218374 -0.008198086705199007 0.0 0.0 0.0 0.0 1.3286514518850676 0.03748836817745873 0.0 1.212622039297822 0.0249405000665149 0.0 1.317242479199743 0.11458399625268903 0.0 1.2523791986997617 -0.044366799531807166 0.0 0.41338177223428624 -0.013801181155936312 0.0 1.2283147175806604 0.010491114072952562 0.0 1.2911956584755921 0.05683949766568829 0.0 0.040943339939995715 -0.009887430349947365 0.0 -0.08247897194905472 -0.005224623016326197 0.0 -0.06768060996135318 -0.007566184586847183 0.0 -0.08113383532928382 0.002964052545937312 0.0 1.1858153664372946 0.21971650231075288 0.0 0.7774541003924398 0.19847886855433325 0.0 0.7779168920332248 0.1542355951407717 0.0 0.7857385808791888 0.10691089573053615 0.0 0.6205768711455778 0.11098353897320881 0.0 0.35286722370104695 0.001425595479259201 0.0 0.09316557923980606 0.0038265695168258965 0.0 0.36462307602639027 -0.020700062080326185 0.0 1.0719661609173985 0.0767241672055203 0.0 0.0 0.0 0.0 0.5197282282096806 0.01137689915527747 0.0 0.9318281126940969 0.02918448139267292 0.0 -0.10944880812351587 0.00048449010462059183 0.0 1.0970188744563691 0.2670255959719331 0.0 0.9003348478404363 0.11240108410331771 0.0 1.2803172641821496 -0.049588858921048105 0.0 0.1865830704160103 -0.0037332200835601902 0.0 0.3586595374665544 0.017735626997800232 0.0 0.14293298791416206 6.215935751666665e-05 0.0 1.302964919801834 0.039233905024833274 0.0 -0.10613681170029383 -0.001679064806575922 0.0 -0.07756057680178095 -0.00663302615162253 0.0 -0.09782669712424119 -0.0046821999688685815 0.0 -0.04363125166719655 0.0069435271587823585 0.0 -0.09569513642541826 0.0008953082067406249 0.0 -0.11595411883848002 -9.047812330552577e-05 0.0 -0.0669337220252462 -0.0022191786805638093 0.0 -0.04154422607644075 0.0033370936502106828 0.0 -0.11978413408724896 -0.0022067302212137744 0.0 0.07502270280678447 -0.0021222883387790976 0.0 -0.03895506461526752 0.0055921501518865 0.0 -0.12324219129307912 -0.001369052436143208 0.0 -0.12189977405200195 -0.0009436006435815576 0.0 -0.024033743075441833 -0.002631357434345155 0.0 0.0 0.0 0.0 0.946423529557457 0.2554573223634477 0.0 0.95135242839347 0.04010605607036851 0.0 0.22461638132785347 -0.0044793751085789035 0.0 0.3084522821898624 -0.004544612508973809 0.0 0.5441709276270557 0.020889369467052853 0.0 0.9122469722264333 0.04295948929918946 0.0 1.1920507408032959 0.03453956857691663 0.0 1.353699348682629 0.01463252386660071 0.0 0.08793115143849076 0.0020929580829907213 0.0 -0.03614215413037484 -7.249673533861733e-05 0.0 0.02221784844143386 -0.01197778524091206 0.0 0.1350769273257529 -0.008909997402747399 0.0 0.1251685603992636 -0.01405982423417846 0.0 0.31513151006125817 -0.023469022397920185 0.0 0.5748427646658107 -0.0511769141120666 0.0 0.8593188547220266 -0.052602064699965194 0.0 0.366344257619136 -0.03201233528415397 0.0 0.5549549125837474 -0.03602332529629631 0.0 0.6502353323468446 -0.04798475160209711 0.0 0.7700117750908783 -0.041212663408996306 0.0 0.258620759729134 -0.02854741954432169 0.0 1.2727672301384882 -0.06473612783594851 0.0 1.0584718736994088 -0.05196883068064714 0.0 1.286522551022485 -0.029163004642608365 0.0 1.0489624056990636 -0.03983197288710167 0.0 -0.04327906119703149 -0.00917686886506425 0.0 1.0269746235161934 -0.06718305303613983 0.0 1.0601121089499819 -0.030167449892939714 0.0 1.2266538916582426 -0.1029368657897787 0.0 -0.10912523788048238 -0.002588486550760615 0.0 0.4598849263350242 -0.04594876748106075 0.0 1.251006580444233 -0.10532865607565771 0.0 0.1309960121665004 -0.022093943794844615 0.0 -0.12226652472012835 -0.0011692749881019534 0.0 1.2613777445670018 -0.08744352798606707 0.0 0.06246878689849159 -0.02140117643359051 0.0 -0.11181751215936998 -0.002887975040806627 0.0 -0.026421489719017487 0.009662887407226008 0.0 0.045042583077275496 -0.018042888766462106 0.0 -0.06818834466420097 -0.00838029358738026 0.0 0.4178638970609869 -0.04924468946609083 0.0 -0.048219945708868096 -0.011087380702743982 0.0 0.11247331692744555 0.030102853699521804 0.0 -0.08258570160324395 0.005315471225539735 0.0 -0.07335091842965005 -0.006621873173545072 0.0 -0.09983509874041628 0.0002821848281388368 0.0 0.03934082818459577 0.01683333745947371 0.0 1.2157496789941176 0.10306628396709963 0.0 0.32746589204497534 0.03715644424645377 0.0 0.30356687097326945 -0.04496078081712969 0.0 0.2554750623212863 -0.010297079823119608 0.0 0.7079934075825082 -0.020699077173506726 0.0 0.30597369558850873 0.005530023473950211 0.0 1.1766100967158495 0.052931217351638735 0.0 0.8888106029622024 0.060907682772304406 0.0 0.9287869214233643 -0.08292002691143677 0.0 -0.047903548490717957 -0.004318859294575491 0.0 -0.059157981313462046 -0.003976112465690219 0.0 -0.11930216795589145 -0.0018037303728512843 0.0 -0.04587545205953879 0.003794616027275699 0.0 -0.07991688397842069 -0.004546545260509433 0.0 0.3252384440949142 -0.03886218895469578 0.0 1.2580067706363947 -0.09351052760695779 0.0 0.6255841030414419 -0.06185738059447058 0.0 0.8931092999056294 -0.0859582331296377 0.0 -0.029043353447785296 0.012491450455413883 0.0 0.059971866756645724 -0.023193897616104603 0.0 -0.008374971060866541 -0.015033657506339445 0.0 0.20718805376635482 -0.03874894329493986 0.0 -0.017246263280693924 -0.014778023949686771 0.0 1.2534030138210204 0.10629177239689219 0.0 -0.06731401690284965 -0.0012291588765727828 0.0 -0.015056819385943103 0.010863754725613116 0.0 -0.051938712923386796 6.903926173357827e-05 0.0 0.05340804160494671 -0.021428843337664528 0.0 0.33699481763171624 0.024478338334106453 0.0 0.687432532738113 -0.07025216479715461 0.0 0.5064921238354577 -0.059988716847933506 0.0 0.7865476317309662 -0.06850349397567329 0.0 0.26373366454340097 -0.03867048435210451 0.0 0.8183235799578213 -0.08757617450373557 0.0 1.1661633032038545 -0.09109676027365951 0.0 1.0672238999760266 -0.08375259538534131 0.0 1.0405223454707226 -0.07527577069653399 0.0 0.5910907169737859 -0.0695504944992667 0.0 0.5023898994283623 -0.06450232596474362 0.0 0.3893783323151554 -0.057173282681923454 0.0 0.36487138580370243 -0.05400999954524474 0.0 0.14301421360885927 -0.033024367586992884 0.0 0.7856906172435133 -0.08804290563306465 0.0 0.25938511357376814 0.014592481913888436 0.0 0.6065674658144292 0.037761712724376055 0.0 0.06673730107868371 0.0058146958923609585 0.0 0.1712784495610687 0.017575037285579524 0.0 -0.07055787145828213 4.838006261330876e-05 0.0 1.3327545553543987 -0.024423786222626247 0.0 1.2179573333801341 0.04111962960740478 0.0 1.3551481142296238 -0.012078649648360869 0.0 1.3266546871194065 -0.06319717469049954 0.0 0.16774020730540898 -0.03573364334153863 0.0 0.3555082912297702 -0.05416492878083159 0.0 0.5584723560817029 0.046630311206302615 0.0 0.08695724245447185 0.015240895635816678 0.0 1.308244221948358 0.00406127889414591 0.0 1.3482114946677968 -0.03298992038844255 0.0 0.5177359264250035 0.06850700626972593 0.0 1.3270380729416607 -0.07666736160849294 0.0 0.58837598825199 0.04315753759163039 0.0 1.282446909969702 0.07188505509498205 0.0 0.33248256081711575 0.033361418765989526 0.0 0.7038624572922796 0.0636109993281641 0.0 1.3347453685206832 0.024132874919404045 0.0 1.2312238013561299 -0.02421429482597261 0.0 1.3176964258231938 -0.08665473695431489 0.0 0.8247175308201744 0.06125702716964048 0.0 1.047653709493602 0.0788607676320205 0.0 1.1068669093940011 0.07227026965740097 0.0 1.266838812205367 0.09855924859346314 0.0 1.1285057902585682 0.09726747311771936 0.0 0.9746794193405134 0.08115285585676651 0.0 0.6685684483696789 0.06713861025832521 0.0 1.2733510668028698 -0.08985361466547137 0.0 0.0 0.0 0.0 1.3079987616886903 0.057790365224524465 0.0 0.9168234427009999 0.08948241937748273 0.0 0.32516574319609 0.041654314892156666 0.0 1.3159462205867072 0.07159964502330052 0.0 0.8992159317004557 0.08522499565043395 0.0 1.270718380009498 0.09127181267254642 0.0 0.5979806323495207 0.06602344935063453 0.0 1.2619075818963572 0.10372468754407735 0.0 0.5491308354228841 0.06799146287875692 0.0 0.2558081010764166 0.03990516947882784 0.0 1.1465883795605347 0.1016116423895194 0.0 0.6612894478562081 0.07458625728716424 0.0 1.0723584673324016 0.10346933375279044 0.0 0.8445058843893023 0.0904786304759025 0.0 0.7756695762827165 0.088732388878434 0.0 1.195570590477278 0.0886446155746481 0.0 1.11600085266483 0.09179681460502256 0.0 1.306279014284682 0.08189017344224257 0.0 0.15563754319441045 0.02845768433915563 0.0 1.1521385011443233 0.07921101234833793 0.0 1.2164252354711915 0.10664635241337343 0.0 1.1572738056356209 0.10764903403917685 0.0 1.23342908410252 0.10746633269792774 0.0 1.2435901019795146 0.10848403056524276 0.0 1.2912386612025266 0.08710896085270929 0.0 1.1832602782267307 0.06847322651138546 0.0 0.944947736632541 0.10164681311827652 0.0 1.2291544194107407 0.09271589868572326 0.0 1.2790534030114646 0.09077096348890853 0.0 1.045144469766391 0.06532140915323034 0.0 1.1622385190522317 0.10983857885505142 0.0 1.0790493361410711 0.10840101602954592 0.0 1.0596112828968944 0.1063395940559573 0.0 1.232205383484651 0.09706583790782101 0.0 0.0 0.0 0.0 0.6445056632004214 -0.005584724591449079 0.0 1.0778403254210454 0.4342439877209131 0.0 1.1669093690054397 0.422252190001026 0.0 1.0822431601526366 -0.426785357936231 0.0 0.8656003463033294 -0.22702726663534772 0.0 0.9788870624707066 -0.25552372560851294 0.0 0.892368010672276 -0.08498892826024694 0.0 1.2228377406016075 -0.052287905910336954 0.0 1.0814584097587452 -0.06400065098441143 0.0 1.1987197831798189 -0.10445740799996231 0.0 1.2652049897786508 -0.08455685879405749 0.0 1.3153766446265824 -0.05370340447504744 0.0 -0.08311495727312344 -0.002570548000754267 0.0 -0.050341893249636664 0.0076608784722380415 0.0 0.0007436412232345922 0.010005245953861841 0.0 0.0006682771659450859 0.012041095677030739 0.0 0.1466634678320584 0.026813962517402676 0.0 -0.05705651051084855 0.008201451413146862 0.0 0.06116508596397314 0.02191599870168761 0.0 0.2167044774210874 0.037119084416071244 0.0 0.08482199944488247 0.03818053661480306 0.0 -0.03604176581151046 0.015040904810272294 0.0 1.0348317641817728 0.16076812429185816 0.0 -0.07024531469779106 0.004294685094835267 0.0 1.254751610282289 -0.10046094131845121 0.0 1.1420788377616466 -0.0981689526786598 0.0 0.9508726377466905 -0.09242564543398314 0.0 1.1041953425270679 -0.101987996692523 0.0 1.2397634237903974 -0.10615974409311443 0.0 0.9133638837683039 -0.09521646369244009 0.0 1.2472721715935229 -0.10641436997667726 0.0 1.0781135852208317 -0.10460603284616965 0.0 1.1333047998533965 -0.10464519289519468 0.0 0.8641369141196693 -0.09436459197920796 0.0 0.9076975086050856 -0.09687827713357423 0.0 0.6266158291747208 -0.07735550743732353 0.0 1.1046824089978542 -0.1070312471492247 0.0 1.2336051981144567 -0.10590043887603331 0.0 1.0693585669792327 -0.10473777907713697 0.0 1.1681482178792364 -0.08568000373425921 0.0 1.1934737095777734 -0.10810198646404608 0.0 0.6826891388858418 -0.08108521750828494 0.0 1.1414822792843622 -0.10521779926290724 0.0 0.9397994653794