<?xml version="1.0"?>
<VTKFile type="UnstructuredGrid"  version="0.1"  >
<UnstructuredGrid>
<Piece  NumberOfPoints="1289" NumberOfCells="2413">
<Points>
<DataArray  type="Float64"  NumberOfComponents="3"  format="ascii">0 0 0  0 0.41 0  2.2 0.41 0  2.2 0 0  0.1 0.1 0  0.1 0.3 0  0.8 0.3 0  0.8 0.1 0  0.25 0.2 0  0.248976 0.210065 0  0.245948 0.219718 0  0.241038 0.228563 0  0.234448 0.23624 0  0.226448 0.242432 0  0.217365 0.246888 0  0.207571 0.249423 0  0.197468 0.249936 0  0.187467 0.248404 0  0.17798 0.24489 0  0.169395 0.239539 0  0.162062 0.232569 0  0.156283 0.224265 0  0.152293 0.214968 0  0.150257 0.205058 0  0.150257 0.194942 0  0.152293 0.185032 0  0.156283 0.175735 0  0.162062 0.167431 0  0.169395 0.160461 0  0.17798 0.15511 0  0.187467 0.151596 0  0.197468 0.150064 0  0.207571 0.150577 0  0.217365 0.153112 0  0.226448 0.157568 0  0.234448 0.16376 0  0.241038 0.171437 0  0.245948 0.180282 0  0.248976 0.189935 0  1.1 0 0  1.1 0.41 0  0.1 0.2 0  0.45 0.1 0  0.45 0.3 0  0.55 0 0  0.275 0.1 0  0.275 0.3 0  0.275 0 0  0.55 0.41 0  0 0.205 0  0.825 0 0  0.825 0.41 0  0.275 0.41 0  0.1 0.15 0  0.1875 0.1 0  0.1 0.25 0  0.1875 0.3 0  0.132322 0.2 0  0.241426 0.253518 0  0.241426 0.146482 0  0.264574 0.17974 0  0.264574 0.22026 0  0.138434 0.187348 0  0.153372 0.150948 0  0.148413 0.164094 0  0.176495 0.136535 0  0.22768 0.143571 0  0.138434 0.212652 0  0.148413 0.235906 0  0.176495 0.263465 0  0.22768 0.256429 0  0.23125 0.3 0  0.24769 0.24094 0  0.23125 0.1 0  0.24769 0.15906 0  0.26253 0.193641 0  0.190482 0.137872 0  0.166753 0.146661 0  0.157737 0.244461 0  0.190482 0.262128 0  0.203107 0.261264 0  0.253635 0.22977 0  0.203107 0.138736 0  0.253635 0.17023 0  0.261028 0.206206 0  0.167707 0.251809 0  0.143629 0.224191 0  0.215302 0.2591 0  0.270465 0.245894 0  0.215302 0.1409 0  0.270465 0.154106 0  0.284052 0.202587 0  0.14375 0.3 0  0.209375 0.3 0  0.225966 0.278501 0  0.209375 0.1 0  0.225966 0.121499 0  0.211613 0.273759 0  0.211613 0.126241 0  0.143629 0.175809 0  0.1 0.175 0  0.133484 0.164832 0  0.144491 0.249539 0  0.1 0.225 0  0.133484 0.235168 0  0.3625 0.3 0  0.25691 0.253381 0  0.25691 0.146619 0  0.277205 0.188698 0  0.184724 0.275712 0  0.237372 0.268285 0  0.184724 0.124288 0  0.237372 0.131715 0  0.197578 0.273149 0  0.193656 0.286994 0  0.197578 0.126851 0  0.193656 0.113006 0  0.122953 0.187671 0  0.118362 0.153758 0  0.155372 0.258107 0  0.122953 0.212329 0  0.118362 0.246242 0  0.276394 0.27264 0  0.276394 0.12736 0  0.280965 0.170013 0  0.253125 0.3 0  0.14375 0.1 0  0.253125 0.1 0  0.269489 0.26014 0  0.269489 0.13986 0  0.303639 0.184297 0  0.165625 0.3 0  0.134742 0.273113 0  0.257831 0.274737 0  0.255279 0.128499 0  0.3625 0.1 0  0.165625 0.1 0  0.162031 0.132368 0  0.134955 0.126405 0  0.149334 0.125568 0  0.142936 0.139597 0  0.12695 0.140259 0  0.242514 0.285501 0  0.242514 0.114499 0  0.1 0.125 0  0.117483 0.12555 0  0.11154 0.139776 0  0.121875 0.1 0  0.109143 0.1125 0  0.126805 0.114 0  0.220313 0.29129 0  0.351562 0.287369 0  0.207222 0.2866 0  0.220312 0.10871 0  0.1375 0 0  0.20625 0 0  0.207222 0.1134 0  0.11722 0.17118 0  0.1 0.1625 0  0.0778409 0.16875 0  0.0862762 0.15625 0  0 0.15375 0  0 0.1025 0  0.11722 0.22882 0  0.1 0.2375 0  0 0.3075 0  0.0862762 0.23125 0  0.0598995 0.222547 0  0.0860223 0.2125 0  0.289584 0.181469 0  0.300267 0.16446 0  0.163832 0.269071 0  0.149597 0.273325 0  0.1 0.275 0  0.268498 0.285953 0  0.31875 0.3 0  0.294154 0.254672 0  0.296875 0.3 0  0.293558 0.271845 0  0.285095 0.286799 0  0.324298 0.264316 0  0.307866 0.263745 0  0.317093 0.234901 0  0.315485 0.281219 0  0.316547 0.250625 0  0.344693 0.243731 0  0.331592 0.251147 0  0.35129 0.270663 0  0.338689 0.263683 0  0.340625 0.3 0  0.249849 0.264383 0  0.265097 0.11422 0  0.284688 0.156136 0  0.242188 0.324017 0  0.0856613 0.2625 0  0.132812 0.0612217 0  0.264062 0.0612217 0  0.198437 0.07598340000000001 0  0.0860223 0.1375 0  0.0794526 0.191089 0  0.285228 0.140397 0  0.298655 0.148737 0  0.31875 0.1 0  0.327335 0.15374 0  0.296875 0.1 0  0.312289 0.155283 0  0.313348 0.135607 0  0.321802 0.173916 0  0.298433 0.134116 0  0.112124 0.2625 0  0.127526 0.259083 0  0.121875 0.3 0  0.0682687 0.241503 0  0.1 0.2875 0  0.117762 0.28125 0  0.107813 0.3 0  0.103906 0.313849 0  0.0778409 0.28125 0  0.1375 0.41 0  0.0862762 0.29375 0  0.08886860000000001 0.24375 0  0.307812 0.338778 0  0.307812 0.292227 0  0.33216 0.279164 0  0.387888 0.266414 0  0.264063 0.31948 0  0.110937 0.07598340000000001 0  0.242188 0.07598340000000001 0  0.319914 0.11839 0  0.340625 0.1 0  0.334448 0.133793 0  0.329687 0.108539 0  0.346259 0.118491 0  0.360334 0.173636 0  0.327539 0.205033 0  0.132812 0.288712 0  0.362436 0.278836 0  0.368105 0.259418 0  0.4125 0.41 0  0.329687 0.324017 0  0.329687 0.292306 0  0.285938 0.318952 0  0.417187 0.338778 0  0.324481 0.14148 0  0.351562 0.106771 0  0.40625 0.1 0  0.341028 0.168342 0  0.319221 0.190479 0  0.335292 0.184501 0  0.305563 0.20794 0  0.220313 0.31948 0  0.132812 0.332772 0  0.0865876 0.311259 0  0.0598995 0.302453 0  0.0906541 0.343255 0  0.353543 0.255837 0  0.36574 0.237633 0  0.405007 0.254279 0  0.275795 0.352123 0  0.4125 0 0  0.35493 0.137394 0  0.366563 0.120618 0  0.35917 0.205246 0  0.198438 0.318952 0  0.0626109 0.263892 0  0.40625 0.3 0  0.354809 0.155936 0  0.386512 0.146872 0  0.373101 0.159939 0  0.384375 0.1 0  0.343394 0.19929 0  0.350682 0.185683 0  0.368101 0.189748 0  0.344016 0.221511 0  0.391108 0.213329 0  0.376279 0.204783 0  0.398843 0.182768 0  0.375804 0.222746 0  0.390665 0.196958 0  0.394004 0.23518 0  0.359883 0.222828 0  0.419908 0.204359 0  0.404243 0.204783 0  0.412615 0.224526 0  0.20625 0.41 0  0.165625 0.325257 0  0.0347982 0.244954 0  0.379558 0.247154 0  0.34165 0.147603 0  0.372264 0.136992 0  0.388988 0.121989 0  0.373437 0.108554 0  0.351562 0.31948 0  0.391367 0.16527 0  0.399572 0.223324 0  0.452011 0.227371 0  0.40877 0.239392 0  0.431491 0.237337 0  0.421224 0.250459 0  0.449619 0.262098 0  0.418865 0.276779 0  0.437063 0.252274 0  0.415673 0.263227 0  0.430988 0.266772 0  0.402767 0.273419 0  0.452967 0.244883 0  0.428125 0.3 0  0.408502 0.286186 0  0.384375 0.3 0  0.392267 0.285807 0  0.465927 0.219339 0  0.43489 0.283846 0  0.376424 0.286289 0  0.625 0.3 0  0.473533 0.205186 0  0.461713 0.255517 0  0.5375 0.3 0  0.465725 0.235405 0  0.44631 0.201425 0  0.471875 0.3 0  0.494307 0.227729 0  0.459448 0.206736 0  0.462294 0.180792 0  0.478933 0.227536 0  0.486793 0.21381 0  0.486322 0.251373 0  0.50065 0.215318 0  0.54005 0.175389 0  0.474633 0.189893 0  0.512916 0.208697 0  0.49531 0.199967 0  0.475889 0.175275 0  0.625 0.1 0  0.459311 0.153933 0  0.513645 0.242704 0  0.392892 0.248539 0  0.374815 0.271913 0  0.365974 0.14871 0  0.395312 0.109184 0  0.417061 0.123981 0  0.483196 0.277003 0  0.381967 0.179632 0  0.429898 0.219374 0  0.433473 0.206165 0  0.43149 0.181038 0  0.444208 0.215487 0  0.472985 0.247309 0  0.49375 0.3 0  0.475579 0.262714 0  0.49916 0.274293 0  0.501175 0.184809 0  0.514164 0.225681 0  0.543648 0.214977 0  0.5341630000000001 0.23481 0  0.527396 0.216171 0  0.5375 0.1 0  0.534548 0.202315 0  0.561545 0.192513 0  0.5494289999999999 0.201221 0  0.570923 0.218346 0  0.412582 0.149833 0  0.489327 0.264745 0  0.502439 0.254775 0  0.462391 0.271166 0  0.496775 0.241732 0  0.5294410000000001 0.268606 0  0.482812 0.291099 0  0.46879 0.285038 0  0.452663 0.284065 0  0.51789 0.257882 0  0.53408 0.252026 0  0.560142 0.243543 0  0.545708 0.243474 0  0.547532 0.229019 0  0.55282 0.265323 0  0.398971 0.153424 0  0.400349 0.135684 0  0.410135 0.168145 0  0.428823 0.161323 0  0.415266 0.183779 0  0.329687 0.0810483 0  0.395312 0.0612217 0  0.373437 0.318952 0  0.439062 0.324017 0  0.561816 0.229354 0  0.585029 0.239287 0  0.431827 0.139854 0  0.446796 0.168929 0  0.351562 0.07598340000000001 0  0.395313 0.318944 0  0.54337 0.150762 0  0.460937 0.31948 0  0.418412 0.137529 0  0.428125 0.1 0  0.442783 0.152332 0  0.450742 0.134294 0  0.373437 0.0805201 0  0.384383 0.342558 0  0.482812 0.318952 0  0.429239 0.127457 0  0.444274 0.117405 0  0.426548 0.113815 0  0.49375 0.1 0  0.488954 0.113984 0  0.457973 0.121842 0  0.471621 0.137346 0  0.515625 0.325257 0  0.48125 0.41 0  0.417187 0.07598340000000001 0  0.496363 0.126778 0  0.479043 0.155715 0  0.439062 0.0805201 0  0.481795 0.126919 0  0.471875 0.1 0  0.489227 0.142159 0  0.515625 0.1 0  0.520062 0.147117 0  0.501244 0.161791 0  0.505431 0.112984 0  0.505344 0.14029 0  0.526563 0.119081 0  0.5181750000000001 0.131908 0  0.539868 0.136937 0  0.460937 0.108383 0  0.474242 0.114415 0  0.460937 0.0810483 0  0.487841 0.167168 0  0.526563 0.0612217 0  0.526563 0.106406 0  0.537619 0.112743 0  0.58125 0.1 0  0.559375 0.1 0  0.482812 0.08105569999999999 0  0.471883 0.0587655 0  0.570312 0.129396 0  0.548437 0.07598340000000001 0  0.504687 0.08105569999999999 0  0.49375 0.0470127 0  0.570312 0.112663 0  0.592798 0.12103 0  0.553986 0.12103 0  0.570312 0.0805201 0  0.48125 0 0  0.114787 0.2 0  0.160769 0.284765 0  0.175816 0.288361 0  0.162602 0.116048 0  0.154687 0.07598340000000001 0  0.176562 0.0805201 0  0.0598995 0.147547 0  0.307812 0.109924 0  0.291279 0.117157 0  0.278491 0.112989 0  0.285937 0.07598340000000001 0  0.307812 0.0805201 0  0.296928 0.196743 0  0.318141 0.218507 0  0.330208 0.227509 0  0.301397 0.225668 0  0.302706 0.241401 0  0.292574 0.21424 0  0.282762 0.230935 0  0.284351 0.244775 0  0.269553 0.23261 0  0.278572 0.217242 0  0.226924 0.342606 0  0.446928 0.185396 0  0.515625 0.3 0  0.504687 0.288879 0  0.515256 0.276534 0  0.529479 0.285328 0  0.58125 0.3 0  0.541969 0.272936 0  0.559375 0.3 0  0.556796 0.282529 0  0.543473 0.287206 0  0.581429 0.267774 0  0.566728 0.271171 0  0.570869 0.255585 0  0.577404 0.283865 0  0.603125 0.3 0  0.597531 0.28035 0  0.570312 0.338778 0  0.592188 0.292492 0  0.603513 0.256094 0  0.614063 0.286265 0  0.610329 0.27064 0  0.632708 0.251285 0  0.657223 0.261594 0  0.618789 0.257807 0  0.614188 0.22987 0  0.630935 0.265614 
[...]
<PointData  Vectors="v"> 
	<DataArray  type="Float64"  Name="v"  NumberOfComponents="3" format="ascii">
0.0 0.0 0.0 0.0 0.0 0.0 0.0 0.0 0.0 0.0 0.0 0.0 0.7962350208342172 -0.19598817774013128 0.0 0.8404031513837213 0.2077636757224049 0.0 1.1683172970688087 -0.05923014153603835 0.0 1.1368338635442465 0.056059961245923495 0.0 0.0 0.0 0.0 0.0 0.0 0.0 0.0 0.0 0.0 0.0 0.0 0.0 0.0008528922287794629 0.000790264423405258 0.0 9.274572353828893e-05 2.500382112407548e-05 0.0 0.00041787746244883415 0.0007360661443962537 0.0 0.0 0.0 0.0 0.0 0.0 0.0 0.0 0.0 0.0 0.0 0.0 0.0 0.0 0.0 0.0 0.0 0.0 0.0 0.0 0.0 0.0 0.0 0.0 0.0 0.0 0.0 0.0 0.0 0.0 0.0 0.0 0.0 0.0 0.0 0.0 0.0 0.0 0.0 0.0 0.0 0.0 0.0 0.0 0.0 0.0 0.0 0.0 0.0 0.0 0.0 0.0 0.0 0.0 0.0 0.0005337226558819205 -0.0009278257649585725 0.0 0.0004909930352883045 -0.0007154791906178097 0.0 0.0008439032840434305 -0.0007877208579954499 0.0 0.0 0.0 0.0 0.0 0.0 0.0 0.0 0.0 0.0 0.0 0.0 0.0 0.0 0.0 0.0 0.7613283173332456 -0.0012960662724252137 0.0 1.2754747215247169 0.08290913391729973 0.0 1.2663462130250898 -0.07741196298631467 0.0 0.0 0.0 0.0 1.3536243920864723 -0.13299936382084263 0.0 1.3581901555389235 0.1548676629477245 0.0 0.0 0.0 0.0 0.0 0.0 0.0 1.0 0.0 0.0 0.0 0.0 0.0 0.0 0.0 0.0 0.0 0.0 0.0 0.8425977915792194 -0.2318971713326086 0.0 1.1513987843143176 -0.34431902942432474 0.0 0.8637774369205073 0.22929678767662845 0.0 1.166280351261767 0.3541169543442804 0.0 0.4282350810509108 -0.003982065406884605 0.0 0.16482844505007965 0.0623779834257868 0.0 0.17002207981814027 -0.06102208201313536 0.0 -0.027403491126530333 -0.03830083166437133 0.0 -0.02587951538912367 0.03623483170361209 0.0 0.3343802613353756 -0.27985605050235307 0.0 0.8578991802556346 -0.6734669909028153 0.0 0.6399996517594749 -0.6881618576059443 0.0 1.2061513945913136 -0.6132970827377091 0.0 0.41535837874773407 -0.0691672849075105 0.0 0.330444356065428 0.26873444221975273 0.0 0.6428238438896514 0.6693145044750728 0.0 1.1851327601770394 0.6153885973828257 0.0 0.40818004534326763 0.07145311160661111 0.0 1.3132557871787152 0.2609217159841207 0.0 0.32339690782423475 0.25205945533842367 0.0 1.302626081051153 -0.2405240018180499 0.0 0.31411440423202114 -0.2391789455669472 0.0 -0.03342686418227442 -0.016952365520688295 0.0 1.1249056948394005 -0.39875511283331244 0.0 1.0932091436464255 -0.7243456865347365 0.0 0.8520448556854752 0.7707365130414869 0.0 1.1313326704035775 0.3995542614538138 0.0 0.7593270130664703 0.1860169891264964 0.0 0.1087448217127632 0.05144459108334152 0.0 0.7693649997702636 -0.18190448740412357 0.0 0.11112435352812007 -0.049820523842238854 0.0 -0.02950584898509163 0.019032966248117376 0.0 1.0274932849215277 0.7188762743583187 0.0 0.4423754969372537 0.529184580109915 0.0 0.45801300814809326 0.17791798031100273 0.0 0.2711199148406021 0.06900641727621645 0.0 0.4640760327338304 -0.17346720031011817 0.0 0.27675960918792675 -0.06461131815725489 0.0 -0.0749958202233086 0.002272023295593131 0.0 0.9654734934862114 0.317418904123841 0.0 1.2605680848177794 0.31323383179965525 0.0 1.2451231302751182 0.2888980599198105 0.0 1.2348244240208834 -0.30764412158481574 0.0 1.2478056782777605 -0.28101463123763276 0.0 1.2201379318893872 0.33108042129909354 0.0 1.2261302498563509 -0.3226288012435573 0.0 0.4428927090648986 -0.5445818825396674 0.0 0.8020183557739 -0.13963953080136737 0.0 0.6715137572247624 -0.4197076896356411 0.0 0.8773586514578822 0.5938411548352911 0.0 0.7993027775983493 0.14279534812031222 0.0 0.6764857768065189 0.42014312576575047 0.0 1.2927718295404336 -0.007176482196929598 0.0 0.2930512227519317 0.14435751057219237 0.0 0.2945748935653391 -0.13425663740354166 0.0 -0.05423149643433717 -0.012942718092242287 0.0 1.265052118801549 0.4718462247413097 0.0 0.7687397054730132 0.12088419507368452 0.0 1.2611227941267706 -0.4732778059430389 0.0 0.7890351693796013 -0.11557533883414127 0.0 1.2755786986995754 0.4181070583780309 0.0 1.2539984416532866 0.40116852024475613 0.0 1.2715781952817062 -0.41422199726963516 0.0 1.2446926775299256 -0.3811042531094581 0.0 0.583528761676891 -0.16053657534450966 0.0 0.7964367117878116 -0.3318159450737797 0.0 1.0104207908498517 0.603804243181059 0.0 0.5917475507703545 0.15059987066073194 0.0 0.8125559820948761 0.33169908339041176 0.0 0.7458127939258284 0.08084132708818927 0.0 0.782576245193799 -0.07300098888216398 0.0 0.052200591555067316 -0.02210394305326752 0.0 1.3634948398009703 0.2074896135147732 0.0 0.9298243097974819 -0.32222365940458225 0.0 1.344533662103659 -0.19003351031201762 0.0 0.40909222816210566 0.09085514742731625 0.0 0.4270033019638057 -0.07817444652587825 0.0 -0.05447312213980129 -0.008172230845853357 0.0 1.0573568781731992 0.3540209975652859 0.0 0.9431527368967402 0.3914779321263217 0.0 0.9222473956233054 0.11236089688812932 0.0 0.8241862641354307 -0.08692916485855695 0.0 1.3067944932273465 0.016649996161760782 0.0 1.0275098229402 -0.3451865538763262 0.0 1.0744920627723318 -0.5703234155617773 0.0 0.9301348575340384 -0.389395279093887 0.0 0.9974682794027712 -0.4386479308848916 0.0 0.9329327644761397 -0.5428299928700786 0.0 0.8655336816780688 -0.4065030654178362 0.0 1.2733420950877805 0.23292406845579675 0.0 1.2715470542675957 -0.21958929304654165 0.0 0.8526577208867998 -0.23563554699184217 0.0 0.8790521227634706 -0.3099556765528114 0.0 0.852897439076526 -0.2990499545831897 0.0 0.8514107144068598 -0.25640110058491733 0.0 0.8542135166300134 -0.2527823707919825 0.0 0.8962752607570837 -0.3194666521151572 0.0 1.3292572910930045 0.3156584360689484 0.0 1.084575995482447 -0.0024091062875611206 0.0 1.3145955882759734 0.36241129925999305 0.0 1.3213176025222984 -0.29603611915397265 0.0 0.0 0.0 0.0 0.0 0.0 0.0 1.299424052943358 -0.34944926606615373 0.0 0.7142449512114236 -0.2673234454696072 0.0 0.8203928850529714 -0.2107715467511501 0.0 0.8711719106977449 -0.11076259527709431 0.0 0.8624421538695288 -0.16377428819961745 0.0 0.9375 0.0 0.0 0.7500000000000001 0.0 0.0 0.7224710603566206 0.2653010918333822 0.0 0.8240351063484388 0.2001410263742759 0.0 0.7499999999999999 0.0 0.0 0.8697154315718816 0.12781832874811216 0.0 0.9287119014421921 0.042830725296397 0.0 0.8481108822694589 0.045062355152170545 0.0 -0.03479649905765563 -0.011614629155141772 0.0 0.09137613579004382 -0.017599546873747814 0.0 1.1150070290665515 0.5547927403930232 0.0 1.0190075145505781 0.47315783936519623 0.0 0.8809695122259069 0.2454748195415323 0.0 1.2000705134795946 0.13906978224097966 0.0 1.3288638352496303 0.059837671503824255 0.0 0.35181664255655704 0.037980908454197285 0.0 1.356164654026834 0.10290510522901948 0.0 0.7139024939081272 0.05376138780901756 0.0 1.171158756955364 0.10024434284499696 0.0 0.5144760877696942 0.015843774509850368 0.0 0.4960779241838181 0.03003709762458374 0.0 0.06968456901827474 0.013427504448768965 0.0 0.9566371874298872 0.03453988009138921 0.0 0.25692576977313236 0.022168906642939894 0.0 0.16315114411762383 0.008542470210813212 0.0 0.2674867896999297 0.014638701659594673 0.0 0.666569560090464 -0.004795484018961521 0.0 0.4982204243446419 0.0070190661344630275 0.0 1.3157741947025192 0.019325263842359424 0.0 0.5424536819123199 0.062150972243358894 0.0 1.2301842870884074 -0.1419930502193278 0.0 0.2018451021517964 -0.037575563526444956 0.0 1.2058213502037343 0.17358823997167788 0.0 0.8828221532057642 0.17974157205561175 0.0 0.701122226186647 -0.1679528521887812 0.0 1.1155482732200523 -0.09422262547117007 0.0 1.0385347824340458 -0.22374679647965215 0.0 0.8637523091866376 -0.18265643913525298 0.0 0.8754192757681512 -0.025600395232776785 0.0 0.43930009865355507 -0.04804594681684441 0.0 0.2903026052512112 -0.033052848619395704 0.0 1.3289456574672653 -0.04188886338780105 0.0 0.2083963680840825 -0.013503330954996454 0.0 1.3554068127123733 -0.08635129735076211 0.0 0.1913706801952679 -0.019082882437362926 0.0 0.535479865661963 -0.015674531017749273 0.0 -0.001567335020289447 -0.011271290257782849 0.0 0.5721384186555752 -0.031429815196106235 0.0 0.87888847446362 0.2971598054807119 0.0 0.8795566780328479 0.41077739210835323 0.0 0.8850917604793009 0.27034292175453795 0.0 0.9122183728836414 0.10984671890838785 0.0 0.8651770124887166 0.22329898688872268 0.0 0.9047250026293595 0.30372606163659416 0.0 0.8572358013966828 0.2335264759983309 0.0 0.8020255363507277 0.1833861952967293 0.0 0.8670536712520547 0.1615310826074486 0.0 0.0 0.0 0.0 0.8415171995664117 0.17669643105182906 0.0 0.8706542282055524 0.17102387952175688 0.0 1.2131534108654345 0.04976795253004981 0.0 1.2375992020448539 0.06497849702137481 0.0 0.8902168875551176 0.013240806814816587 0.0 0.5939671197465171 -0.025927097034623446 0.0 1.2798938278961747 0.14710651917677264 0.0 0.7176179978954217 -0.17372423004993345 0.0 1.177980291687055 -0.16453532076026 0.0 0.9985826812525183 -0.019801637949038872 0.0 1.3235486171769093 -0.007723152214382723 0.0 0.5853955349626468 -0.00012727193786988983 0.0 1.2204174068059308 -0.012608763989677559 0.0 0.9834238750373197 0.009221084369159964 0.0 -0.004581577082428561 -0.007061659893273211 0.0 -0.0961417650571062 0.001085905726747735 0.0 0.9448550385634324 0.34123782381242773 0.0 0.8777723385380989 -0.018402949709828857 0.0 0.42736363990326387 -0.00814232356916508 0.0 0.0 0.0 0.0 1.3286910962753191 0.03750688657558333 0.0 1.2126240814731724 0.024967517580903403 0.0 1.3172772748724766 0.11461191488667755 0.0 1.2524692358453773 -0.044345967343105024 0.0 0.41342869645445096 -0.013794684709897564 0.0 1.2282904923648454 0.010510018550654823 0.0 1.2911367510974114 0.05690433913351317 0.0 0.04098783645453586 -0.009872738536971253 0.0 -0.08245952168798511 -0.005225157321609916 0.0 -0.06765908120477629 -0.007551313362035377 0.0 -0.08113240600980216 0.002952656185619974 0.0 1.1858240264602475 0.21974014086613983 0.0 0.7774482773980467 0.1984814103306886 0.0 0.7779127570134676 0.15423046880192762 0.0 0.785736359074574 0.10690401535925331 0.0 0.6205727444347029 0.11098066944893833 0.0 0.3527897997010287 0.0014658845527487391 0.0 0.09311191632379867 0.0038986991111050725 0.0 0.3645991164509472 -0.02055050569982359 0.0 1.0719954407241918 0.07674042272327813 0.0 0.0 0.0 0.0 0.5197689090729273 0.011393434525851853 0.0 0.9318212044966762 0.029211875266160876 0.0 -0.10946057391640626 0.0005502267480274139 0.0 1.0970180787248012 0.2670487278476019 0.0 0.9003326023124041 0.11239156539952969 0.0 1.2803842621060848 -0.04952461384587392 0.0 0.18664055720486886 -0.0037099882250531705 0.0 0.3586970193243928 0.01781128552034123 0.0 0.14296456888483947 0.00011857469748961729 0.0 1.3029273519518605 0.03927947122928857 0.0 -0.10613730407025151 -0.0016455745794447414 0.0 -0.07754864403776215 -0.006595243269345647 0.0 -0.09783240230106778 -0.0046016847410419075 0.0 -0.04366021514621516 0.006982372421236268 0.0 -0.09570340665486611 0.0010633447225695 0.0 -0.11596757220357 2.3448864323435153e-05 0.0 -0.06697371268848473 -0.0020282796049433693 0.0 -0.04156417718081493 0.0034459990515697285 0.0 -0.11980449561888581 -0.002038489020711071 0.0 0.07500835622931576 -0.0019718889481593715 0.0 -0.038987502472925754 0.005659144085754431 0.0 -0.12325373782382909 -0.0010438173785508951 0.0 -0.12191144795286375 -0.0007061882110941365 0.0 -0.024004743282413726 -0.0023749982529668494 0.0 0.0 0.0 0.0 0.9464174676129218 0.25546879701961633 0.0 0.9513520825449475 0.040098600684068446 0.0 0.22455992147284887 -0.004391303086602032 0.0 0.30851155519005374 -0.004537704081313567 0.0 0.5442160876057989 0.020929334364191667 0.0 0.9122434201728575 0.0430184023653656 0.0 1.1920217968262405 0.03457263321694458 0.0 1.3537398417451807 0.014655833918377376 0.0 0.08792245952985928 0.0022171956703482144 0.0 -0.03613795813539527 0.00012202597929795538 0.0 0.022376307424662897 -0.011529139969182579 0.0 0.13509250337246984 -0.008709852985044588 0.0 0.1252593471879502 -0.013751212903176813 0.0 0.3151643798964102 -0.023254597707104408 0.0 0.5749831109434225 -0.05093532495932796 0.0 0.8593495020908424 -0.05247721946104291 0.0 0.36643786225661107 -0.031748926055498006 0.0 0.5549534148683649 -0.03586725992288545 0.0 0.6502853476231986 -0.04780459120940084 0.0 0.7699998949811145 -0.04111038521557604 0.0 0.25881392267591136 -0.028193423395684123 0.0 1.2728814989451638 -0.06466858615012143 0.0 1.0585114856371336 -0.0518791134877661 0.0 1.2865629814734407 -0.029114205028199745 0.0 1.0489759529957792 -0.03976193277720552 0.0 -0.04310726306012205 -0.00863040882568722 0.0 1.0270761323116864 -0.06705903588375732 0.0 1.0601159919783751 -0.030115143658432646 0.0 1.2265606160289797 -0.10346217311296775 0.0 -0.10908387418000229 -0.0019782788634188225 0.0 0.4601205133621116 -0.04564308798366117 0.0 1.2514477442698007 -0.10561088202454307 0.0 0.1312635820800127 -0.02163860983926925 0.0 -0.1222793859924547 -0.0006912468899447732 0.0 1.2616338296090357 -0.08742027472073102 0.0 0.06287656829992204 -0.020866374637073578 0.0 -0.11178815170952003 -0.0023404873423027283 0.0 -0.026632688053890526 0.010186958770022165 0.0 0.045359010995769986 -0.017509214682473427 0.0 -0.0679986699881682 -0.007769845807708437 0.0 0.41830707765017994 -0.048903934702832566 0.0 -0.047946160902517146 -0.010496049105104767 0.0 0.11170941232793469 0.03028298804533104 0.0 -0.08273938360945461 0.005925380901810639 0.0 -0.07317608891183958 -0.0060460447303156886 0.0 -0.09987013474599489 0.000926845057710225 0.0 0.0390197333256588 0.01738094261158716 0.0 1.2158977018404309 0.10255673177456866 0.0 0.32722116918630495 0.037524971323103805 0.0 0.3042727849776459 -0.044634487011382035 0.0 0.25543641097953446 -0.010172934547582786 0.0 0.707947656034974 -0.020637229913609674 0.0 0.30603153839121544 0.005566368943318485 0.0 1.176573092916689 0.05299566267647035 0.0 0.8887826551051486 0.06102710691546317 0.0 0.9291478042734506 -0.08279637895919899 0.0 -0.04791594610259952 -0.004202582247363227 0.0 -0.05909764105292314 -0.0036129692698151123 0.0 -0.11929956275904235 -0.0014010308259288365 0.0 -0.04598467893572144 0.0041632665870305645 0.0 -0.07984657083177123 -0.0040927252273217024 0.0 0.32556983346837715 -0.03848013944548671 0.0 1.2583465353580845 -0.09355844120284747 0.0 0.6259076065391205 -0.06160402695069977 0.0 0.8936051818753448 -0.08587292322721944 0.0 -0.0293772893007521 0.013063474414130687 0.0 0.06051416791942191 -0.022731152685924023 0.0 -0.007901517625115196 -0.014813759300867695 0.0 0.2080283548463555 -0.03853168864045949 0.0 -0.0168255502405798 -0.014353157242441912 0.0 1.2530049625364965 0.1060195528866445 0.0 -0.06727306576877837 -0.0008510850331813843 0.0 -0.015406669228606111 0.01079867835269942 0.0 -0.05194248221650748 0.00023699130964025526 0.0 0.054101499366588215 -0.0216990730354439 0.0 0.33697399215266727 0.024647138496511543 0.0 0.6878754143448335 -0.07004454255141569 0.0 0.5070884085970877 -0.059735773156738114 0.0 0.786765424613602 -0.06830786301577894 0.0 0.2642633001492839 -0.038259082335609214 0.0 0.8191321497263986 -0.08765173078602846 0.0 1.1664958212621883 -0.09106025603126659 0.0 1.0674836840328517 -0.08364776494243222 0.0 1.0406970211175404 -0.07515099309254915 0.0 0.5918482606344846 -0.06942831552058794 0.0 0.5033292061032579 -0.0644660194473456 0.0 0.3905525566288191 -0.057412735244513194 0.0 0.36591055878555034 -0.05403475009934122 0.0 0.14387411457707766 -0.03293140987744973 0.0 0.7867288782331666 -0.08831995230793699 0.0 0.2593898223801579 0.014719654918833397 0.0 0.6065856085859141 0.03785752128242171 0.0 0.06667657459408743 0.00603018064419685 0.0 0.17116954699737388 0.01786044264260895 0.0 -0.07062501568456422 0.00032420751055821487 0.0 1.3327127028462236 -0.024417418159873337 0.0 1.2179043758313823 0.04114206326636388 0.0 1.355198467890256 -0.012048555721331662 0.0 1.3267823997855106 -0.06317343246299406 0.0 0.1687051619573499 -0.035885290790796644 0.0 0.35678573965565596 -0.05479291922385911 0.0 0.5584143342615071 0.04683239467551586 0.0 0.08676415436896474 0.015644226671505952 0.0 1.3082118128383975 0.004068001587851793 0.0 1.3482786383015624 -0.032956086342329834 0.0 0.5167061572883077 0.06846120269348636 0.0 1.3272069212111224 -0.07666972233754002 0.0 0.5883600497538087 0.04331424625639963 0.0 1.2823511132725336 0.0719660565460862 0.0 0.3323349604458696 0.03366429937998586 0.0 0.703730132184257 0.06383911494750887 0.0 1.3347025314440812 0.02415268028161324 0.0 1.2312847036537085 -0.024190795236329186 0.0 1.3179043741721503 -0.08670803157765654 0.0 0.824664015177741 0.061411541779126395 0.0 1.0475297621457298 0.07900546694737777 0.0 1.1067919906772543 0.07238903039354247 0.0 1.2665220452528037 0.09853264037789468 0.0 1.1281562652469008 0.09732652201245413 0.0 0.974499771768599 0.08132063228431732 0.0 0.6682939833231449 0.06740019256586066 0.0 1.273536299592659 -0.09001101922423252 0.0 0.0 0.0 0.0 1.3079208712074353 0.0578323517197771 0.0 0.9163798527105379 0.08959618653322086 0.0 0.32476856168292273 0.04206869581729556 0.0 1.3158368046793691 0.07164484833187848 0.0 0.8988796176703144 0.0853945818691205 0.0 1.2704839100478715 0.09131782388636173 0.0 0.5975383722491565 0.06630507979148034 0.0 1.2615291622733802 0.10357888876032809 0.0 0.5483568651263662 0.06815448513106924 0.0 0.2552230869618613 0.040329857320638846 0.0 1.1461423288489552 0.10158511753658116 0.0 0.6606987520488864 0.07478567764304618 0.0 1.0717426654449003 0.10332808851746524 0.0 0.8438387849706036 0.09049390375966072 0.0 0.7747542544608735 0.08858641533452657 0.0 1.195367255747764 0.08875002183211171 0.0 1.1157300607465208 0.09190677534763668 0.0 1.3061238959456474 0.08191438711461468 0.0 0.15519172993871602 0.028963842149857748 0.0 1.152057384395896 0.07903879700202972 0.0 1.2159540537011682 0.10645078581872364 0.0 1.1566898521205684 0.107384710908668 0.0 1.2331643808533588 0.10694714469249052 0.0 1.2432055379539375 0.1080696019861689 0.0 1.2910425799751717 0.08708187607721161 0.0 1.1831405202406295 0.06844416884474178 0.0 0.9439749764018422 0.10112004026306139 0.0 1.229051089221312 0.0924241996629974 0.0 1.2788344228604047 0.09066791754584601 0.0 1.0450699729077222 0.06525343855196233 0.0 1.1616477801074083 0.1093145877518288 0.0 1.0783251333708095 0.10768915022366378 0.0 1.0588393476849516 0.10595987050064216 0.0 1.2321395189308868 0.09667944139979535 0.0 0.0 0.0 0.0 0.6445055395972812 -0.005597507504728388 0.0 1.0778255137209845 0.43425238284055884 0.0 1.1668928070204994 0.42226929579616196 0.0 1.0822592032447296 -0.42677552607040986 0.0 0.8656071138752738 -0.2270197050399554 0.0 0.9788921286200387 -0.2555078791751496 0.0 0.8923697864325654 -0.08499884404011972 0.0 1.2228377653990794 -0.05227514772545914 0.0 1.0814509942528254 -0.06398407633497874 0.0 1.1987595154874569 -0.10443482161205657 0.0 1.2651645292396752 -0.08453318732996974 0.0 1.3153438986632007 -0.053693857588797377 0.0 -0.08309678216760133 -0.0025935251490363923 0.0 -0.05036240292467054 0.007668839160066295 0.0 0.0007010847995031228 0.010030658901614448 0.0 0.0006369442575153032 0.012023096399046883 0.0 0.1465938066045464 0.026818183643938075 0.0 -0.05706730748725765 0.00817132465172069 0.0 0.061129478379528375 0.021859823199023094 0.0 0.21670627258691028 0.03707558087961002 0.0 0.08479889133075776 0.03813078759088784 0.0 -0.03607105686516252 0.014985487335594143 0.0 1.0348426677843314 0.16078893997980237 0.0 -0.07037253187543625 0.004765693312694636 0.0 1.2551601238915213 -0.1006176210457343 0.0 1.142539656106035 -0.09821637694230965 0.0 0.9514942858180572 -0.09245965061912974 0.0 1.1048232981516752 -0.10217839023380129 0.0 1.2400767117118512 -0.10666881736567241 0.0 0.9142252245134519 -0.0954403414612021 0.0 1.2476867115345365 -0.10683409107045089 0.0 1.078880810860164 -0.10501847219906826 0.0 1.1339568759689458 -0.10495938086820433 0.0 0.8652473438739745 -0.09499912715844856 0.0 0.9087021852430236 -0.09736559691062063 0.0 0.6278547602533653 -0.07781622888337743 0.0 1.1054156625124316 -0.10760408563159013 0.0 1.233758015119345 -0.1064636983913538 0.0 1.0700906106018693 -0.10545176349033483 0.0 1.1680709729293846 -0.0859572516836957 0.0 1.1938991076731746 -0.10872432182061706 0.0 0.6839487588495352 -0.08198873625226764 0.0 1.1418778743996734 -0.10592793879553189 0.0 0.9407