<?xml version="1.0"?>
<VTKFile type="UnstructuredGrid"  version="0.1"  >
<UnstructuredGrid>
<Piece  NumberOfPoints="1289" NumberOfCells="2413">
<Points>
<DataArray  type="Float64"  NumberOfComponents="3"  format="ascii">0 0 0  0 0.41 0  2.2 0.41 0  2.2 0 0  0.1 0.1 0  0.1 0.3 0  0.8 0.3 0  0.8 0.1 0  0.25 0.2 0  0.248976 0.210065 0  0.245948 0.219718 0  0.241038 0.228563 0  0.234448 0.23624 0  0.226448 0.242432 0  0.217365 0.246888 0  0.207571 0.249423 0  0.197468 0.249936 0  0.187467 0.248404 0  0.17798 0.24489 0  0.169395 0.239539 0  0.162062 0.232569 0  0.156283 0.224265 0  0.152293 0.214968 0  0.150257 0.205058 0  0.150257 0.194942 0  0.152293 0.185032 0  0.156283 0.175735 0  0.162062 0.167431 0  0.169395 0.160461 0  0.17798 0.15511 0  0.187467 0.151596 0  0.197468 0.150064 0  0.207571 0.150577 0  0.217365 0.153112 0  0.226448 0.157568 0  0.234448 0.16376 0  0.241038 0.171437 0  0.245948 0.180282 0  0.248976 0.189935 0  1.1 0 0  1.1 0.41 0  0.1 0.2 0  0.45 0.1 0  0.45 0.3 0  0.55 0 0  0.275 0.1 0  0.275 0.3 0  0.275 0 0  0.55 0.41 0  0 0.205 0  0.825 0 0  0.825 0.41 0  0.275 0.41 0  0.1 0.15 0  0.1875 0.1 0  0.1 0.25 0  0.1875 0.3 0  0.132322 0.2 0  0.241426 0.253518 0  0.241426 0.146482 0  0.264574 0.17974 0  0.264574 0.22026 0  0.138434 0.187348 0  0.153372 0.150948 0  0.148413 0.164094 0  0.176495 0.136535 0  0.22768 0.143571 0  0.138434 0.212652 0  0.148413 0.235906 0  0.176495 0.263465 0  0.22768 0.256429 0  0.23125 0.3 0  0.24769 0.24094 0  0.23125 0.1 0  0.24769 0.15906 0  0.26253 0.193641 0  0.190482 0.137872 0  0.166753 0.146661 0  0.157737 0.244461 0  0.190482 0.262128 0  0.203107 0.261264 0  0.253635 0.22977 0  0.203107 0.138736 0  0.253635 0.17023 0  0.261028 0.206206 0  0.167707 0.251809 0  0.143629 0.224191 0  0.215302 0.2591 0  0.270465 0.245894 0  0.215302 0.1409 0  0.270465 0.154106 0  0.284052 0.202587 0  0.14375 0.3 0  0.209375 0.3 0  0.225966 0.278501 0  0.209375 0.1 0  0.225966 0.121499 0  0.211613 0.273759 0  0.211613 0.126241 0  0.143629 0.175809 0  0.1 0.175 0  0.133484 0.164832 0  0.144491 0.249539 0  0.1 0.225 0  0.133484 0.235168 0  0.3625 0.3 0  0.25691 0.253381 0  0.25691 0.146619 0  0.277205 0.188698 0  0.184724 0.275712 0  0.237372 0.268285 0  0.184724 0.124288 0  0.237372 0.131715 0  0.197578 0.273149 0  0.193656 0.286994 0  0.197578 0.126851 0  0.193656 0.113006 0  0.122953 0.187671 0  0.118362 0.153758 0  0.155372 0.258107 0  0.122953 0.212329 0  0.118362 0.246242 0  0.276394 0.27264 0  0.276394 0.12736 0  0.280965 0.170013 0  0.253125 0.3 0  0.14375 0.1 0  0.253125 0.1 0  0.269489 0.26014 0  0.269489 0.13986 0  0.303639 0.184297 0  0.165625 0.3 0  0.134742 0.273113 0  0.257831 0.274737 0  0.255279 0.128499 0  0.3625 0.1 0  0.165625 0.1 0  0.162031 0.132368 0  0.134955 0.126405 0  0.149334 0.125568 0  0.142936 0.139597 0  0.12695 0.140259 0  0.242514 0.285501 0  0.242514 0.114499 0  0.1 0.125 0  0.117483 0.12555 0  0.11154 0.139776 0  0.121875 0.1 0  0.109143 0.1125 0  0.126805 0.114 0  0.220313 0.29129 0  0.351562 0.287369 0  0.207222 0.2866 0  0.220312 0.10871 0  0.1375 0 0  0.20625 0 0  0.207222 0.1134 0  0.11722 0.17118 0  0.1 0.1625 0  0.0778409 0.16875 0  0.0862762 0.15625 0  0 0.15375 0  0 0.1025 0  0.11722 0.22882 0  0.1 0.2375 0  0 0.3075 0  0.0862762 0.23125 0  0.0598995 0.222547 0  0.0860223 0.2125 0  0.289584 0.181469 0  0.300267 0.16446 0  0.163832 0.269071 0  0.149597 0.273325 0  0.1 0.275 0  0.268498 0.285953 0  0.31875 0.3 0  0.294154 0.254672 0  0.296875 0.3 0  0.293558 0.271845 0  0.285095 0.286799 0  0.324298 0.264316 0  0.307866 0.263745 0  0.317093 0.234901 0  0.315485 0.281219 0  0.316547 0.250625 0  0.344693 0.243731 0  0.331592 0.251147 0  0.35129 0.270663 0  0.338689 0.263683 0  0.340625 0.3 0  0.249849 0.264383 0  0.265097 0.11422 0  0.284688 0.156136 0  0.242188 0.324017 0  0.0856613 0.2625 0  0.132812 0.0612217 0  0.264062 0.0612217 0  0.198437 0.07598340000000001 0  0.0860223 0.1375 0  0.0794526 0.191089 0  0.285228 0.140397 0  0.298655 0.148737 0  0.31875 0.1 0  0.327335 0.15374 0  0.296875 0.1 0  0.312289 0.155283 0  0.313348 0.135607 0  0.321802 0.173916 0  0.298433 0.134116 0  0.112124 0.2625 0  0.127526 0.259083 0  0.121875 0.3 0  0.0682687 0.241503 0  0.1 0.2875 0  0.117762 0.28125 0  0.107813 0.3 0  0.103906 0.313849 0  0.0778409 0.28125 0  0.1375 0.41 0  0.0862762 0.29375 0  0.08886860000000001 0.24375 0  0.307812 0.338778 0  0.307812 0.292227 0  0.33216 0.279164 0  0.387888 0.266414 0  0.264063 0.31948 0  0.110937 0.07598340000000001 0  0.242188 0.07598340000000001 0  0.319914 0.11839 0  0.340625 0.1 0  0.334448 0.133793 0  0.329687 0.108539 0  0.346259 0.118491 0  0.360334 0.173636 0  0.327539 0.205033 0  0.132812 0.288712 0  0.362436 0.278836 0  0.368105 0.259418 0  0.4125 0.41 0  0.329687 0.324017 0  0.329687 0.292306 0  0.285938 0.318952 0  0.417187 0.338778 0  0.324481 0.14148 0  0.351562 0.106771 0  0.40625 0.1 0  0.341028 0.168342 0  0.319221 0.190479 0  0.335292 0.184501 0  0.305563 0.20794 0  0.220313 0.31948 0  0.132812 0.332772 0  0.0865876 0.311259 0  0.0598995 0.302453 0  0.0906541 0.343255 0  0.353543 0.255837 0  0.36574 0.237633 0  0.405007 0.254279 0  0.275795 0.352123 0  0.4125 0 0  0.35493 0.137394 0  0.366563 0.120618 0  0.35917 0.205246 0  0.198438 0.318952 0  0.0626109 0.263892 0  0.40625 0.3 0  0.354809 0.155936 0  0.386512 0.146872 0  0.373101 0.159939 0  0.384375 0.1 0  0.343394 0.19929 0  0.350682 0.185683 0  0.368101 0.189748 0  0.344016 0.221511 0  0.391108 0.213329 0  0.376279 0.204783 0  0.398843 0.182768 0  0.375804 0.222746 0  0.390665 0.196958 0  0.394004 0.23518 0  0.359883 0.222828 0  0.419908 0.204359 0  0.404243 0.204783 0  0.412615 0.224526 0  0.20625 0.41 0  0.165625 0.325257 0  0.0347982 0.244954 0  0.379558 0.247154 0  0.34165 0.147603 0  0.372264 0.136992 0  0.388988 0.121989 0  0.373437 0.108554 0  0.351562 0.31948 0  0.391367 0.16527 0  0.399572 0.223324 0  0.452011 0.227371 0  0.40877 0.239392 0  0.431491 0.237337 0  0.421224 0.250459 0  0.449619 0.262098 0  0.418865 0.276779 0  0.437063 0.252274 0  0.415673 0.263227 0  0.430988 0.266772 0  0.402767 0.273419 0  0.452967 0.244883 0  0.428125 0.3 0  0.408502 0.286186 0  0.384375 0.3 0  0.392267 0.285807 0  0.465927 0.219339 0  0.43489 0.283846 0  0.376424 0.286289 0  0.625 0.3 0  0.473533 0.205186 0  0.461713 0.255517 0  0.5375 0.3 0  0.465725 0.235405 0  0.44631 0.201425 0  0.471875 0.3 0  0.494307 0.227729 0  0.459448 0.206736 0  0.462294 0.180792 0  0.478933 0.227536 0  0.486793 0.21381 0  0.486322 0.251373 0  0.50065 0.215318 0  0.54005 0.175389 0  0.474633 0.189893 0  0.512916 0.208697 0  0.49531 0.199967 0  0.475889 0.175275 0  0.625 0.1 0  0.459311 0.153933 0  0.513645 0.242704 0  0.392892 0.248539 0  0.374815 0.271913 0  0.365974 0.14871 0  0.395312 0.109184 0  0.417061 0.123981 0  0.483196 0.277003 0  0.381967 0.179632 0  0.429898 0.219374 0  0.433473 0.206165 0  0.43149 0.181038 0  0.444208 0.215487 0  0.472985 0.247309 0  0.49375 0.3 0  0.475579 0.262714 0  0.49916 0.274293 0  0.501175 0.184809 0  0.514164 0.225681 0  0.543648 0.214977 0  0.5341630000000001 0.23481 0  0.527396 0.216171 0  0.5375 0.1 0  0.534548 0.202315 0  0.561545 0.192513 0  0.5494289999999999 0.201221 0  0.570923 0.218346 0  0.412582 0.149833 0  0.489327 0.264745 0  0.502439 0.254775 0  0.462391 0.271166 0  0.496775 0.241732 0  0.5294410000000001 0.268606 0  0.482812 0.291099 0  0.46879 0.285038 0  0.452663 0.284065 0  0.51789 0.257882 0  0.53408 0.252026 0  0.560142 0.243543 0  0.545708 0.243474 0  0.547532 0.229019 0  0.55282 0.265323 0  0.398971 0.153424 0  0.400349 0.135684 0  0.410135 0.168145 0  0.428823 0.161323 0  0.415266 0.183779 0  0.329687 0.0810483 0  0.395312 0.0612217 0  0.373437 0.318952 0  0.439062 0.324017 0  0.561816 0.229354 0  0.585029 0.239287 0  0.431827 0.139854 0  0.446796 0.168929 0  0.351562 0.07598340000000001 0  0.395313 0.318944 0  0.54337 0.150762 0  0.460937 0.31948 0  0.418412 0.137529 0  0.428125 0.1 0  0.442783 0.152332 0  0.450742 0.134294 0  0.373437 0.0805201 0  0.384383 0.342558 0  0.482812 0.318952 0  0.429239 0.127457 0  0.444274 0.117405 0  0.426548 0.113815 0  0.49375 0.1 0  0.488954 0.113984 0  0.457973 0.121842 0  0.471621 0.137346 0  0.515625 0.325257 0  0.48125 0.41 0  0.417187 0.07598340000000001 0  0.496363 0.126778 0  0.479043 0.155715 0  0.439062 0.0805201 0  0.481795 0.126919 0  0.471875 0.1 0  0.489227 0.142159 0  0.515625 0.1 0  0.520062 0.147117 0  0.501244 0.161791 0  0.505431 0.112984 0  0.505344 0.14029 0  0.526563 0.119081 0  0.5181750000000001 0.131908 0  0.539868 0.136937 0  0.460937 0.108383 0  0.474242 0.114415 0  0.460937 0.0810483 0  0.487841 0.167168 0  0.526563 0.0612217 0  0.526563 0.106406 0  0.537619 0.112743 0  0.58125 0.1 0  0.559375 0.1 0  0.482812 0.08105569999999999 0  0.471883 0.0587655 0  0.570312 0.129396 0  0.548437 0.07598340000000001 0  0.504687 0.08105569999999999 0  0.49375 0.0470127 0  0.570312 0.112663 0  0.592798 0.12103 0  0.553986 0.12103 0  0.570312 0.0805201 0  0.48125 0 0  0.114787 0.2 0  0.160769 0.284765 0  0.175816 0.288361 0  0.162602 0.116048 0  0.154687 0.07598340000000001 0  0.176562 0.0805201 0  0.0598995 0.147547 0  0.307812 0.109924 0  0.291279 0.117157 0  0.278491 0.112989 0  0.285937 0.07598340000000001 0  0.307812 0.0805201 0  0.296928 0.196743 0  0.318141 0.218507 0  0.330208 0.227509 0  0.301397 0.225668 0  0.302706 0.241401 0  0.292574 0.21424 0  0.282762 0.230935 0  0.284351 0.244775 0  0.269553 0.23261 0  0.278572 0.217242 0  0.226924 0.342606 0  0.446928 0.185396 0  0.515625 0.3 0  0.504687 0.288879 0  0.515256 0.276534 0  0.529479 0.285328 0  0.58125 0.3 0  0.541969 0.272936 0  0.559375 0.3 0  0.556796 0.282529 0  0.543473 0.287206 0  0.581429 0.267774 0  0.566728 0.271171 0  0.570869 0.255585 0  0.577404 0.283865 0  0.603125 0.3 0  0.597531 0.28035 0  0.570312 0.338778 0  0.592188 0.292492 0  0.603513 0.256094 0  0.614063 0.286265 0  0.610329 0.27064 0  0.632708 0.251285 0  0.657223 0.261594 0  0.618789 0.257807 0  0.614188 0.22987 0  0.630935 0.265614 
[...]
<PointData  Vectors="v"> 
	<DataArray  type="Float64"  Name="v"  NumberOfComponents="3" format="ascii">
0.0 0.0 0.0 0.0 0.0 0.0 0.0 0.0 0.0 0.0 0.0 0.0 0.7962296421560144 -0.19597894282229317 0.0 0.8404087172675121 0.20777329047686088 0.0 1.1691951600069859 -0.059833552419132296 0.0 1.135987048930168 0.05538107529733567 0.0 0.0 0.0 0.0 0.0 0.0 0.0 0.0 0.0 0.0 0.0 0.0 0.0 0.0008429517089909971 0.0007726845195481616 0.0 -0.00034042388112493296 -0.0007253829170173975 0.0 0.00029223924426660815 0.0005185577041389986 0.0 0.0 0.0 0.0 0.0 0.0 0.0 0.0 0.0 0.0 0.0 0.0 0.0 0.0 0.0 0.0 0.0 0.0 0.0 0.0 0.0 0.0 0.0 0.0 0.0 0.0 0.0 0.0 0.0 0.0 0.0 0.0 0.0 0.0 0.0 0.0 0.0 0.0 0.0 0.0 0.0 0.0 0.0 0.0 0.0 0.0 0.0 0.0 0.0 0.0 0.0 0.0 0.0 0.0 0.0 0.0006842338725333612 -0.0011883877353847075 0.0 0.001009960827586092 -0.0016144529212827824 0.0 0.0008560415358523016 -0.0008089726026248705 0.0 0.0 0.0 0.0 0.0 0.0 0.0 0.0 0.0 0.0 0.0 0.0 0.0 0.0 0.0 0.0 0.7613284109261168 -0.0012775695131763663 0.0 1.2754378717238648 0.08282918054539791 0.0 1.2663987896891218 -0.0775013224880499 0.0 0.0 0.0 0.0 1.3536257258282132 -0.13303001323783126 0.0 1.3581947784612176 0.15484951597232635 0.0 0.0 0.0 0.0 0.0 0.0 0.0 1.0 0.0 0.0 0.0 0.0 0.0 0.0 0.0 0.0 0.0 0.0 0.0 0.8425927615830036 -0.23188171050320594 0.0 1.1513784882099267 -0.34431631175927463 0.0 0.8637823278134039 0.22931218029348496 0.0 1.1662989519634714 0.3541204557703442 0.0 0.42823535096779164 -0.003959496467155361 0.0 0.1645735883782028 0.06228276214777101 0.0 0.1703302499458361 -0.0611485158366715 0.0 -0.02741013633851197 -0.038282031053788274 0.0 -0.0258815014879986 0.03626349880477801 0.0 0.3343761888046909 -0.27983136127731567 0.0 0.8578861190315505 -0.673449227188966 0.0 0.6399882758567103 -0.6881405555128095 0.0 1.206134096006379 -0.6132843200162806 0.0 0.415056119203503 -0.06938550980588885 0.0 0.330448682196679 0.26875926819042206 0.0 0.6428349824911797 0.6693360972354956 0.0 1.1851488962560868 0.6154009347047333 0.0 0.4084231674099141 0.07126197755198538 0.0 1.3132738570382785 0.26089383112098213 0.0 0.32339555443610046 0.25219907033654415 0.0 1.302605536887172 -0.24055982236226373 0.0 0.31425886638909045 -0.23911347069737401 0.0 -0.03343499598977397 -0.01693156932447135 0.0 1.1248946196321346 -0.39874466277762555 0.0 1.0931916755378086 -0.72433043020221 0.0 0.8520595826690635 0.7707551166416838 0.0 1.1313445863830223 0.39956379499890715 0.0 0.7593271564770311 0.1860406861321418 0.0 0.10873978006784084 0.051462789640952744 0.0 0.7693658163705281 -0.18187697201920242 0.0 0.11116503663714856 -0.049811373726023345 0.0 -0.02950752736082094 0.01905714913844796 0.0 1.0275086657797632 0.7188906638827885 0.0 0.44238514879285606 0.5292087766031659 0.0 0.45815118228916557 0.17804437847308488 0.0 0.27108891013871705 0.06901068086053534 0.0 0.46391166709901005 -0.17331027010021025 0.0 0.27689882109885605 -0.06462860224235477 0.0 -0.07500579560699007 0.0023178809578375 0.0 0.9654847506710831 0.3174278356456308 0.0 1.2605921500892345 0.31323001175016774 0.0 1.2451879220779998 0.2888929677494421 0.0 1.234798003781085 -0.3076486829597271 0.0 1.2477279793813478 -0.28102174539305347 0.0 1.22018235894207 0.33109773741295273 0.0 1.2260796512092687 -0.32260785022947225 0.0 0.4428829772056615 -0.5445576483246133 0.0 0.8020152777229386 -0.13962133503987917 0.0 0.6715055915813019 -0.41968551764307144 0.0 0.8773710385706345 0.5938592407813033 0.0 0.7993060269317478 0.1428134217488111 0.0 0.6764942304651923 0.4201654971120309 0.0 1.2928093881044644 -0.007182113904286051 0.0 0.2930230508783312 0.14438562988819484 0.0 0.29466191219008414 -0.13427930782357625 0.0 -0.05424565923255777 -0.01290250393926128 0.0 1.2650706445795965 0.4718567857487258 0.0 0.7687779688284494 0.12081914726263356 0.0 1.2611032947410368 -0.47326663350413595 0.0 0.7889740243889093 -0.1156503145152359 0.0 1.2756051559078945 0.4181218909247427 0.0 1.2540218639673453 0.4011745896892042 0.0 1.2715491978349707 -0.41420483498773686 0.0 1.2446667915852951 -0.3810981273612516 0.0 0.583525363863691 -0.1605139406775998 0.0 0.7964298248204735 -0.3317977424535071 0.0 1.0104355140997325 0.6038193829837073 0.0 0.591750944264496 0.15062255215335799 0.0 0.812562862410937 0.33171732681592087 0.0 0.74584399000646 0.08083315916958504 0.0 0.7825554583478179 -0.07301885555910405 0.0 0.05222803711553037 -0.022067886786550552 0.0 1.3635098767876648 0.20746747904629298 0.0 0.9298129007481761 -0.32221430478510815 0.0 1.34451907723745 -0.1900638230253907 0.0 0.40908101292743393 0.09085366953584796 0.0 0.427049114648084 -0.07820110091251484 0.0 -0.05448828428348854 -0.008122376982223987 0.0 1.057371218494511 0.3540279420152486 0.0 0.943163148630185 0.3914914448956639 0.0 0.9222999698767118 0.11232970947169872 0.0 0.8241227920115348 -0.08696739193656577 0.0 1.3067796198213832 0.016657864325396492 0.0 1.0274944544597513 -0.34517993456636437 0.0 1.074476837462 -0.57031033527204 0.0 0.9301239547090229 -0.38938182031910945 0.0 0.9974549857398541 -0.43863557671292364 0.0 0.932920235410287 -0.5428136602868097 0.0 0.8655245824934158 -0.4064866773285776 0.0 1.2733504778859426 0.23290009907237322 0.0 1.2715389292685795 -0.21962414903696895 0.0 0.8526520346697967 -0.23562311804023492 0.0 0.8790439466977359 -0.3099424111781143 0.0 0.8528904678964382 -0.29903498395555 0.0 0.8514021189282157 -0.2563915107608996 0.0 0.8542064440166026 -0.25277122389192863 0.0 0.8962658672884155 -0.31945497578657767 0.0 1.3292920982097571 0.3156498198007101 0.0 1.0846306195558624 -0.0024075631138319982 0.0 1.314626249889627 0.3624120946386081 0.0 1.3212769190464417 -0.29604765452364 0.0 0.0 0.0 0.0 0.0 0.0 0.0 1.2993897124064169 -0.3494491149967083 0.0 0.714240179303164 -0.2673032612413715 0.0 0.8203885884611457 -0.21075488460053224 0.0 0.8711699884733808 -0.11074868439020984 0.0 0.8624390142524607 -0.16376015238174235 0.0 0.9375 0.0 0.0 0.7500000000000001 0.0 0.0 0.7224757683839955 0.2653212524505958 0.0 0.8240393412105729 0.20015779183016444 0.0 0.7499999999999999 0.0 0.0 0.8697180606296853 0.1278336610857883 0.0 0.9287129402732562 0.0428411939408055 0.0 0.8481116730163903 0.04507835934347702 0.0 -0.03480527971489291 -0.011567338026176339 0.0 0.09139390110616802 -0.017565644394664435 0.0 1.1150224341677701 0.5548055584051017 0.0 1.0190206922703404 0.473170847882775 0.0 0.8809750127823441 0.24548750297755403 0.0 1.200104973659955 0.13905305594669154 0.0 1.3288841017751305 0.05983148261265571 0.0 0.35183443638595424 0.03799003001102473 0.0 1.3561816782980218 0.10289405765869006 0.0 0.713945338555207 0.05375574362001353 0.0 1.1711977985602384 0.1002323913754007 0.0 0.5145303123103263 0.015852359393822853 0.0 0.4961174646916647 0.030039735866803582 0.0 0.06972273853058161 0.01346667121537209 0.0 0.9566875324932189 0.034536343709709316 0.0 0.25697524545721073 0.022189884008196943 0.0 0.16322732756065234 0.008580951988648083 0.0 0.2675526659289157 0.014663023450623024 0.0 0.6666423254798937 -0.004784291903390844 0.0 0.4982887773324913 0.0070327100578625795 0.0 1.3158029208363267 0.01932166019989658 0.0 0.5424681009848843 0.062108512466621954 0.0 1.23012994662153 -0.14202795589420883 0.0 0.20191921901064783 -0.03756699132752313 0.0 1.2058309867847492 0.17357563295421607 0.0 0.8828257926902293 0.1797539912643856 0.0 0.7011135180178538 -0.1679480597664415 0.0 1.1155498622276954 -0.09423935624265077 0.0 1.0385194459290719 -0.22375004236272078 0.0 0.8637484422532186 -0.18264429420579859 0.0 0.875418889424603 -0.025585601650995726 0.0 0.4393302765254053 -0.04807650799531827 0.0 0.290349340822197 -0.03305157414718231 0.0 1.3289422625497567 -0.04189347308874889 0.0 0.20838427862759767 -0.013481038506471359 0.0 1.3554004408819118 -0.08636739290335564 0.0 0.19138178745920512 -0.019064323643521498 0.0 0.5354759211727491 -0.015685784033577906 0.0 -0.0015887165474805626 -0.011224800445372874 0.0 0.572126145717086 -0.03145349640374614 0.0 0.8788954708667427 0.2971745150249554 0.0 0.8795656681724368 0.41079396540778573 0.0 0.8850997916857801 0.2703529698695572 0.0 0.9122202449253219 0.10985832717917808 0.0 0.8651824682230841 0.22330967863113013 0.0 0.9047329408374318 0.3037387068618364 0.0 0.8572422548895438 0.23353646496221248 0.0 0.8020312542905883 0.18339407550659947 0.0 0.8670571963560938 0.16154083031554917 0.0 0.0 0.0 0.0 0.8415212584116977 0.1767057656359869 0.0 0.8706576126290937 0.1710382957669632 0.0 1.2131495153513774 0.0497569375338293 0.0 1.237633866558376 0.06497271216961836 0.0 0.8902712272493915 0.013242446729018597 0.0 0.594087023329027 -0.025911327932298712 0.0 1.2798957632651136 0.14708672622159322 0.0 0.7176117639987402 -0.1737171723151176 0.0 1.1779715006820446 -0.16455070713963083 0.0 0.9985422294466118 -0.019811809335092197 0.0 1.3235392460784858 -0.007719188719318136 0.0 0.5853756858027714 -0.00012396188615724772 0.0 1.2203910647038338 -0.012610680122508561 0.0 0.983391303711399 0.009227220646239466 0.0 -0.004637184392449474 -0.006991348630770501 0.0 -0.09614640901384128 0.001144976109920472 0.0 0.9448650608107113 0.3412492385652337 0.0 0.8778444020743792 -0.0183967354178472 0.0 0.4274670306332218 -0.008113921258865587 0.0 0.0 0.0 0.0 1.3286867565053455 0.03749651712057743 0.0 1.21266410129431 0.02496487579607013 0.0 1.3172762669019917 0.11459655682257634 0.0 1.2524512670317693 -0.04438093919018489 0.0 0.4134231518926706 -0.013792967276409298 0.0 1.2282676858246941 0.010518581501247192 0.0 1.2911006446997955 0.05689327713330747 0.0 0.04094753344697604 -0.009821489704091984 0.0 -0.08247878878946184 -0.00517038764260707 0.0 -0.06768747616538537 -0.007491036586485058 0.0 -0.08113883071924333 0.003004964880205672 0.0 1.1858392569322616 0.2197283577649919 0.0 0.7774559732092201 0.19848729107381755 0.0 0.7779165278253244 0.15423808752206933 0.0 0.7857383363478523 0.10691047168521384 0.0 0.6205765956629803 0.11098580367841444 0.0 0.3528787557754481 0.0014938778809107484 0.0 0.09320265390778915 0.003951757715300812 0.0 0.3647570251531737 -0.02053145067251517 0.0 1.0719962328875658 0.07673163980009969 0.0 0.0 0.0 0.0 0.5197312401228821 0.01141465113367115 0.0 0.931784484796672 0.02922781722005137 0.0 -0.10945459027257841 0.0006256366612991046 0.0 1.097033300438867 0.2670469517526545 0.0 0.9003345212929429 0.11240075953639085 0.0 1.2804415272948049 -0.04955656084258348 0.0 0.1865860243749531 -0.0036641147720316474 0.0 0.35860770039581263 0.01786009728325291 0.0 0.1428866446360845 0.0001836731360208699 0.0 1.302902691544278 0.03928320105646634 0.0 -0.10614841208715914 -0.0015782506905894272 0.0 -0.0775822846191978 -0.006524675176634869 0.0 -0.09786191124369303 -0.004520446539969216 0.0 -0.04362667261926919 0.007040246449158876 0.0 -0.09566271679717402 0.0011345492674399629 0.0 -0.11595828164562245 0.00010322057009261148 0.0 -0.06702424950531616 -0.001956005980200082 0.0 -0.04150171202006207 0.0035143918571692813 0.0 -0.1198130071354795 -0.0019624791129277852 0.0 0.07512261856594009 -0.0019194203567846227 0.0 -0.03893606761331991 0.005723162287253682 0.0 -0.12323047374512461 -0.0010184559176438423 0.0 -0.12189192091640089 -0.0006473160280934186 0.0 -0.0239129043784496 -0.0023375528645559343 0.0 0.0 0.0 0.0 0.946429670393894 0.2554727834820797 0.0 0.951352349243979 0.040104247465237185 0.0 0.22467998202664105 -0.004345914718430438 0.0 0.30848297576097566 -0.004514932341825964 0.0 0.5441584974934889 0.020960793226496598 0.0 0.9121891983609126 0.043036395449158285 0.0 1.1919905876007937 0.034584633642649326 0.0 1.3537406555015354 0.01464573841567372 0.0 0.08783059960669078 0.0022881834755589443 0.0 -0.03605758030096344 0.00017944411021269011 0.0 0.022488894696547964 -0.01163857393594645 0.0 0.13523176686045638 -0.00867744811454076 0.0 0.12540619843317535 -0.013772937242654276 0.0 0.3153391956067973 -0.023258527452870874 0.0 0.5751869249058209 -0.05103166384547034 0.0 0.8594891241317505 -0.052510844819075635 0.0 0.3666308110236102 -0.0317982570245465 0.0 0.5551209228763622 -0.03587594903804195 0.0 0.6504655405529324 -0.04784776699733089 0.0 0.7701278394725608 -0.041115499830708016 0.0 0.2589925228207991 -0.028299872247855695 0.0 1.2729412561676612 -0.06472350794147683 0.0 1.0586121438304572 -0.05190690233702242 0.0 1.2866105105120913 -0.02912769395770536 0.0 1.0490624545432659 -0.039771382513152535 0.0 -0.04302695865164441 -0.008822303348035444 0.0 1.0272089604600005 -0.06713083186783358 0.0 1.0601871857478407 -0.030116564465557456 0.0 1.2261671288395701 -0.1030777057272191 0.0 -0.10904845194092243 -0.0022284421096787506 0.0 0.46032164007401344 -0.04578589358073245 0.0 1.2512458592847102 -0.10568500271590346 0.0 0.13139942144625127 -0.02181584159331548 0.0 -0.12225793256300353 -0.0007732822570909602 0.0 1.261654561587092 -0.08753957656497899 0.0 0.06294038399030498 -0.02123585033203287 0.0 -0.11174534088302296 -0.0025004708319485577 0.0 -0.026671420284871617 0.01002024448170059 0.0 0.045446394264420605 -0.017788569546395263 0.0 -0.06795222189136611 -0.008110466264615384 0.0 0.41846698548860384 -0.04915665052049961 0.0 -0.04791812370943867 -0.010933665982101739 0.0 0.11190392723713502 0.029682536414438167 0.0 -0.08273679015132225 0.005672724153273438 0.0 -0.07315802746284453 -0.006587416273653347 0.0 -0.0998383083009664 0.0005088410888201098 0.0 0.03897952758718015 0.017131468773972584 0.0 1.216260670433778 0.10294300425945141 0.0 0.3270797620736541 0.03741216600054924 0.0 0.30429718802332784 -0.04505265610518942 0.0 0.2555749772426567 -0.010133881916259354 0.0 0.7080423329579557 -0.020625023482632857 0.0 0.30596686002458845 0.005610312157863718 0.0 1.176529303932679 0.052999106020253275 0.0 0.8886920281108461 0.06101985980666241 0.0 0.9292841760651978 -0.0829836253031099 0.0 -0.047972455535421274 -0.004122889192137031 0.0 -0.05901602441507328 -0.003625104910944609 0.0 -0.11926660281187718 -0.0014224806763552035 0.0 -0.04603626796923459 0.004156194679073375 0.0 -0.07977862530543436 -0.004160744481441103 0.0 0.32574200200490144 -0.03868090002975136 0.0 1.2583124393595684 -0.09369024187997861 0.0 0.6260999378125885 -0.061793262236992635 0.0 0.8937065385965662 -0.08610026202257895 0.0 -0.029346700630950916 0.012623911944018285 0.0 0.0605034935389573 -0.02322812441039929 0.0 -0.007995994856530405 -0.01547513149967934 0.0 0.2079252137392477 -0.03905818995136147 0.0 -0.01686541185993878 -0.014960393494758788 0.0 1.2532073211051822 0.10594028028461112 0.0 -0.06725512760296813 -0.0015104991268044838 0.0 -0.015246294072594816 0.010096968355190675 0.0 -0.05191835627390976 -0.0004705827799183087 0.0 0.05383402998949975 -0.02232618904713317 0.0 0.33684710400769396 0.024683334617587246 0.0 0.6880372748341174 -0.0702808832603132 0.0 0.507201417152736 -0.06005185794995062 0.0 0.7869524707325855 -0.06844605899808531 0.0 0.26436413528755326 -0.038593714741690294 0.0 0.8190943009032997 -0.08793129604309262 0.0 1.1665433479501293 -0.09121687477846555 0.0 1.067598565571159 -0.08379122673967367 0.0 1.0408291723137935 -0.0752588923932582 0.0 0.5918926297957671 -0.0697703460034775 0.0 0.5032526845071423 -0.06486089166368673 0.0 0.39022273406210106 -0.0578514621666972 0.0 0.36571459406493323 -0.054505913075404776 0.0 0.1436749658431328 -0.03352707825808178 0.0 0.7865031103678738 -0.08857801076816782 0.0 0.2592779274022743 0.014774328022912522 0.0 0.6064913381270098 0.03788614022095704 0.0 0.06658257676969374 0.006083149802072858 0.0 0.17104779273983226 0.017864429787427374 0.0 -0.0706713092262691 0.0003668066565260843 0.0 1.3327267855730167 -0.024422317953407685 0.0 1.2179129068561847 0.04113147567945726 0.0 1.3552064023431998 -0.012065350135909057 0.0 1.3267634310004497 -0.06323730386225698 0.0 0.16839961852043295 -0.03646546194590263 0.0 0.35619322670757514 -0.055141239206373954 0.0 0.558268789476036 0.04681671916835412 0.0 0.08667321293730125 0.015577700561117961 0.0 1.3082239996367548 0.004067500741312166 0.0 1.3482891329593885 -0.03298285063094756 0.0 0.5168945747452696 0.0680432957821021 0.0 1.3271771812654878 -0.07675424441230189 0.0 0.5882369581628872 0.04332205106515444 0.0 1.2823069972333745 0.07192341890353919 0.0 0.3321860330424665 0.03361844166264398 0.0 0.7035772341427959 0.06375892841943019 0.0 1.3347058030312742 0.024152501229364284 0.0 1.2312744552377153 -0.024208843649872316 0.0 1.3178374431658169 -0.08679985969225458 0.0 0.8245483808665978 0.06138516110574674 0.0 1.047432173372156 0.07893516863295444 0.0 1.1067138002027055 0.0723535698550884 0.0 1.2665615089627038 0.09839618065466132 0.0 1.1281175056479227 0.09715238947573544 0.0 0.9743824371828727 0.0812112917642685 0.0 0.6681353195377455 0.06723900241408254 0.0 1.2733861344952777 -0.09006543416541585 0.0 0.0 0.0 0.0 1.3079229581049838 0.057804798428094904 0.0 0.9162980447022834 0.08937357596659305 0.0 0.3246578605403239 0.04184536015124566 0.0 1.3158358291387027 0.07158951503024025 0.0 0.89876216699878 0.0852078225187181 0.0 1.2704727522530197 0.09120332296565345 0.0 0.5974100044537798 0.06606291545446479 0.0 1.2616471254772983 0.10345298261418291 0.0 0.5483692744068387 0.06778626441387695 0.0 0.2551965505210038 0.03996025663588644 0.0 1.1461650488561013 0.10139739236922747 0.0 0.6606219318838075 0.07449192211966159 0.0 1.071831726168229 0.10312178917633337 0.0 0.8438304032020353 0.09021316579895713 0.0 0.7748862621926369 0.08828773185104803 0.0 1.1953076432992726 0.08863979163971349 0.0 1.115658710336353 0.0917629852344142 0.0 1.3061446649201587 0.08183410560956561 0.0 0.1551459878925035 0.028660845121369294 0.0 1.1521980593121472 0.07901756222460346 0.0 1.2160953176543268 0.10630717475696036 0.0 1.1568710915312883 0.10723994687636994 0.0 1.233521713988351 0.10707228936074009 0.0 1.2434991522123742 0.10807417230566975 0.0 1.2911067303713906 0.08699091459766758 0.0 1.183191530412627 0.06839492554340942 0.0 0.9443687034379599 0.10100837360576732 0.0 1.229252922919366 0.0924427855034158 0.0 1.2789388432852526 0.09058499876391624 0.0 1.0451787180498822 0.0652152315440482 0.0 1.1620142925860102 0.10932672685149429 0.0 1.078859243764159 0.10781040434504706 0.0 1.0591016076010167 0.10582166980695176 0.0 1.2323838177046984 0.09678498932328135 0.0 0.0 0.0 0.0 0.6445056724763578 -0.005577147163901135 0.0 1.0778398961350901 0.434262652169485 0.0 1.1669103686347368 0.4222771680387038 0.0 1.0822433355043901 -0.4267652549458671 0.0 0.8655953975947552 -0.22701546517780327 0.0 0.9788771170506106 -0.25550614078606554 0.0 0.892368195732902 -0.08498958173804821 0.0 1.2228114208589531 -0.05228659898451469 0.0 1.0814012361307934 -0.06400276054961855 0.0 1.198730117230083 -0.10446082145592503 0.0 1.2651723341140342 -0.08454848635141027 0.0 1.3153614123504862 -0.053705929607629745 0.0 -0.0831117244251585 -0.0025430707322024325 0.0 -0.050349996868170155 0.007718801977614472 0.0 0.0007386836090464819 0.01007714965911606 0.0 0.00065157074182543 0.012070507330722464 0.0 0.14662210396220737 0.026849954766772717 0.0 -0.05706723274599414 0.008221518230739784 0.0 0.06113348635797936 0.021901734363034157 0.0 0.21670389391318426 0.03709551111549191 0.0 0.08478040890466507 0.038153372757797524 0.0 -0.03606858197439306 0.015031097819022064 0.0 1.034851888018809 0.1607814701742132 0.0 -0.07040484006601677 0.004691231908925594 0.0 1.2550479288766774 -0.10073687050912714 0.0 1.1425335801258423 -0.09839478886022646 0.0 0.9515111099283368 -0.09268868672256785 0.0 1.1047127211969479 -0.1023512121309539 0.0 1.239710944104495 -0.10653846301043841 0.0 0.9140798992577143 -0.09566597350435778 0.0 1.2473844235063283 -0.10681742017866354 0.0 1.0786027825701787 -0.1051124726149443 0.0 1.1337541174480366 -0.10507622974203928 0.0 0.8647454222833882 -0.09506096719404972 0.0 0.9083504944931934 -0.09749722577379391 0.0 0.6274307221676652 -0.07808606486860827 0.0 1.1049983867410282 -0.10757629207596629 0.0 1.2333470239754782 -0.1062049210262803 0.0 1.0695252843329643 -0.10529383478834196 0.0 1.1678960303104742 -0.08585754608721186 0.0 1.1934490857726483 -0.10854357708466464 0.0 0.683165084178867 -0.08197920018733552 0.0 1.1413079002281998 -0.10561020658702432 0.0 0.9399814099241575 -0.09865117933496965 0.0 0.6375