<?xml version="1.0"?>
<VTKFile type="UnstructuredGrid"  version="0.1"  >
<UnstructuredGrid>
<Piece  NumberOfPoints="1289" NumberOfCells="2413">
<Points>
<DataArray  type="Float64"  NumberOfComponents="3"  format="ascii">0 0 0  0 0.41 0  2.2 0.41 0  2.2 0 0  0.1 0.1 0  0.1 0.3 0  0.8 0.3 0  0.8 0.1 0  0.25 0.2 0  0.248976 0.210065 0  0.245948 0.219718 0  0.241038 0.228563 0  0.234448 0.23624 0  0.226448 0.242432 0  0.217365 0.246888 0  0.207571 0.249423 0  0.197468 0.249936 0  0.187467 0.248404 0  0.17798 0.24489 0  0.169395 0.239539 0  0.162062 0.232569 0  0.156283 0.224265 0  0.152293 0.214968 0  0.150257 0.205058 0  0.150257 0.194942 0  0.152293 0.185032 0  0.156283 0.175735 0  0.162062 0.167431 0  0.169395 0.160461 0  0.17798 0.15511 0  0.187467 0.151596 0  0.197468 0.150064 0  0.207571 0.150577 0  0.217365 0.153112 0  0.226448 0.157568 0  0.234448 0.16376 0  0.241038 0.171437 0  0.245948 0.180282 0  0.248976 0.189935 0  1.1 0 0  1.1 0.41 0  0.1 0.2 0  0.45 0.1 0  0.45 0.3 0  0.55 0 0  0.275 0.1 0  0.275 0.3 0  0.275 0 0  0.55 0.41 0  0 0.205 0  0.825 0 0  0.825 0.41 0  0.275 0.41 0  0.1 0.15 0  0.1875 0.1 0  0.1 0.25 0  0.1875 0.3 0  0.132322 0.2 0  0.241426 0.253518 0  0.241426 0.146482 0  0.264574 0.17974 0  0.264574 0.22026 0  0.138434 0.187348 0  0.153372 0.150948 0  0.148413 0.164094 0  0.176495 0.136535 0  0.22768 0.143571 0  0.138434 0.212652 0  0.148413 0.235906 0  0.176495 0.263465 0  0.22768 0.256429 0  0.23125 0.3 0  0.24769 0.24094 0  0.23125 0.1 0  0.24769 0.15906 0  0.26253 0.193641 0  0.190482 0.137872 0  0.166753 0.146661 0  0.157737 0.244461 0  0.190482 0.262128 0  0.203107 0.261264 0  0.253635 0.22977 0  0.203107 0.138736 0  0.253635 0.17023 0  0.261028 0.206206 0  0.167707 0.251809 0  0.143629 0.224191 0  0.215302 0.2591 0  0.270465 0.245894 0  0.215302 0.1409 0  0.270465 0.154106 0  0.284052 0.202587 0  0.14375 0.3 0  0.209375 0.3 0  0.225966 0.278501 0  0.209375 0.1 0  0.225966 0.121499 0  0.211613 0.273759 0  0.211613 0.126241 0  0.143629 0.175809 0  0.1 0.175 0  0.133484 0.164832 0  0.144491 0.249539 0  0.1 0.225 0  0.133484 0.235168 0  0.3625 0.3 0  0.25691 0.253381 0  0.25691 0.146619 0  0.277205 0.188698 0  0.184724 0.275712 0  0.237372 0.268285 0  0.184724 0.124288 0  0.237372 0.131715 0  0.197578 0.273149 0  0.193656 0.286994 0  0.197578 0.126851 0  0.193656 0.113006 0  0.122953 0.187671 0  0.118362 0.153758 0  0.155372 0.258107 0  0.122953 0.212329 0  0.118362 0.246242 0  0.276394 0.27264 0  0.276394 0.12736 0  0.280965 0.170013 0  0.253125 0.3 0  0.14375 0.1 0  0.253125 0.1 0  0.269489 0.26014 0  0.269489 0.13986 0  0.303639 0.184297 0  0.165625 0.3 0  0.134742 0.273113 0  0.257831 0.274737 0  0.255279 0.128499 0  0.3625 0.1 0  0.165625 0.1 0  0.162031 0.132368 0  0.134955 0.126405 0  0.149334 0.125568 0  0.142936 0.139597 0  0.12695 0.140259 0  0.242514 0.285501 0  0.242514 0.114499 0  0.1 0.125 0  0.117483 0.12555 0  0.11154 0.139776 0  0.121875 0.1 0  0.109143 0.1125 0  0.126805 0.114 0  0.220313 0.29129 0  0.351562 0.287369 0  0.207222 0.2866 0  0.220312 0.10871 0  0.1375 0 0  0.20625 0 0  0.207222 0.1134 0  0.11722 0.17118 0  0.1 0.1625 0  0.0778409 0.16875 0  0.0862762 0.15625 0  0 0.15375 0  0 0.1025 0  0.11722 0.22882 0  0.1 0.2375 0  0 0.3075 0  0.0862762 0.23125 0  0.0598995 0.222547 0  0.0860223 0.2125 0  0.289584 0.181469 0  0.300267 0.16446 0  0.163832 0.269071 0  0.149597 0.273325 0  0.1 0.275 0  0.268498 0.285953 0  0.31875 0.3 0  0.294154 0.254672 0  0.296875 0.3 0  0.293558 0.271845 0  0.285095 0.286799 0  0.324298 0.264316 0  0.307866 0.263745 0  0.317093 0.234901 0  0.315485 0.281219 0  0.316547 0.250625 0  0.344693 0.243731 0  0.331592 0.251147 0  0.35129 0.270663 0  0.338689 0.263683 0  0.340625 0.3 0  0.249849 0.264383 0  0.265097 0.11422 0  0.284688 0.156136 0  0.242188 0.324017 0  0.0856613 0.2625 0  0.132812 0.0612217 0  0.264062 0.0612217 0  0.198437 0.07598340000000001 0  0.0860223 0.1375 0  0.0794526 0.191089 0  0.285228 0.140397 0  0.298655 0.148737 0  0.31875 0.1 0  0.327335 0.15374 0  0.296875 0.1 0  0.312289 0.155283 0  0.313348 0.135607 0  0.321802 0.173916 0  0.298433 0.134116 0  0.112124 0.2625 0  0.127526 0.259083 0  0.121875 0.3 0  0.0682687 0.241503 0  0.1 0.2875 0  0.117762 0.28125 0  0.107813 0.3 0  0.103906 0.313849 0  0.0778409 0.28125 0  0.1375 0.41 0  0.0862762 0.29375 0  0.08886860000000001 0.24375 0  0.307812 0.338778 0  0.307812 0.292227 0  0.33216 0.279164 0  0.387888 0.266414 0  0.264063 0.31948 0  0.110937 0.07598340000000001 0  0.242188 0.07598340000000001 0  0.319914 0.11839 0  0.340625 0.1 0  0.334448 0.133793 0  0.329687 0.108539 0  0.346259 0.118491 0  0.360334 0.173636 0  0.327539 0.205033 0  0.132812 0.288712 0  0.362436 0.278836 0  0.368105 0.259418 0  0.4125 0.41 0  0.329687 0.324017 0  0.329687 0.292306 0  0.285938 0.318952 0  0.417187 0.338778 0  0.324481 0.14148 0  0.351562 0.106771 0  0.40625 0.1 0  0.341028 0.168342 0  0.319221 0.190479 0  0.335292 0.184501 0  0.305563 0.20794 0  0.220313 0.31948 0  0.132812 0.332772 0  0.0865876 0.311259 0  0.0598995 0.302453 0  0.0906541 0.343255 0  0.353543 0.255837 0  0.36574 0.237633 0  0.405007 0.254279 0  0.275795 0.352123 0  0.4125 0 0  0.35493 0.137394 0  0.366563 0.120618 0  0.35917 0.205246 0  0.198438 0.318952 0  0.0626109 0.263892 0  0.40625 0.3 0  0.354809 0.155936 0  0.386512 0.146872 0  0.373101 0.159939 0  0.384375 0.1 0  0.343394 0.19929 0  0.350682 0.185683 0  0.368101 0.189748 0  0.344016 0.221511 0  0.391108 0.213329 0  0.376279 0.204783 0  0.398843 0.182768 0  0.375804 0.222746 0  0.390665 0.196958 0  0.394004 0.23518 0  0.359883 0.222828 0  0.419908 0.204359 0  0.404243 0.204783 0  0.412615 0.224526 0  0.20625 0.41 0  0.165625 0.325257 0  0.0347982 0.244954 0  0.379558 0.247154 0  0.34165 0.147603 0  0.372264 0.136992 0  0.388988 0.121989 0  0.373437 0.108554 0  0.351562 0.31948 0  0.391367 0.16527 0  0.399572 0.223324 0  0.452011 0.227371 0  0.40877 0.239392 0  0.431491 0.237337 0  0.421224 0.250459 0  0.449619 0.262098 0  0.418865 0.276779 0  0.437063 0.252274 0  0.415673 0.263227 0  0.430988 0.266772 0  0.402767 0.273419 0  0.452967 0.244883 0  0.428125 0.3 0  0.408502 0.286186 0  0.384375 0.3 0  0.392267 0.285807 0  0.465927 0.219339 0  0.43489 0.283846 0  0.376424 0.286289 0  0.625 0.3 0  0.473533 0.205186 0  0.461713 0.255517 0  0.5375 0.3 0  0.465725 0.235405 0  0.44631 0.201425 0  0.471875 0.3 0  0.494307 0.227729 0  0.459448 0.206736 0  0.462294 0.180792 0  0.478933 0.227536 0  0.486793 0.21381 0  0.486322 0.251373 0  0.50065 0.215318 0  0.54005 0.175389 0  0.474633 0.189893 0  0.512916 0.208697 0  0.49531 0.199967 0  0.475889 0.175275 0  0.625 0.1 0  0.459311 0.153933 0  0.513645 0.242704 0  0.392892 0.248539 0  0.374815 0.271913 0  0.365974 0.14871 0  0.395312 0.109184 0  0.417061 0.123981 0  0.483196 0.277003 0  0.381967 0.179632 0  0.429898 0.219374 0  0.433473 0.206165 0  0.43149 0.181038 0  0.444208 0.215487 0  0.472985 0.247309 0  0.49375 0.3 0  0.475579 0.262714 0  0.49916 0.274293 0  0.501175 0.184809 0  0.514164 0.225681 0  0.543648 0.214977 0  0.5341630000000001 0.23481 0  0.527396 0.216171 0  0.5375 0.1 0  0.534548 0.202315 0  0.561545 0.192513 0  0.5494289999999999 0.201221 0  0.570923 0.218346 0  0.412582 0.149833 0  0.489327 0.264745 0  0.502439 0.254775 0  0.462391 0.271166 0  0.496775 0.241732 0  0.5294410000000001 0.268606 0  0.482812 0.291099 0  0.46879 0.285038 0  0.452663 0.284065 0  0.51789 0.257882 0  0.53408 0.252026 0  0.560142 0.243543 0  0.545708 0.243474 0  0.547532 0.229019 0  0.55282 0.265323 0  0.398971 0.153424 0  0.400349 0.135684 0  0.410135 0.168145 0  0.428823 0.161323 0  0.415266 0.183779 0  0.329687 0.0810483 0  0.395312 0.0612217 0  0.373437 0.318952 0  0.439062 0.324017 0  0.561816 0.229354 0  0.585029 0.239287 0  0.431827 0.139854 0  0.446796 0.168929 0  0.351562 0.07598340000000001 0  0.395313 0.318944 0  0.54337 0.150762 0  0.460937 0.31948 0  0.418412 0.137529 0  0.428125 0.1 0  0.442783 0.152332 0  0.450742 0.134294 0  0.373437 0.0805201 0  0.384383 0.342558 0  0.482812 0.318952 0  0.429239 0.127457 0  0.444274 0.117405 0  0.426548 0.113815 0  0.49375 0.1 0  0.488954 0.113984 0  0.457973 0.121842 0  0.471621 0.137346 0  0.515625 0.325257 0  0.48125 0.41 0  0.417187 0.07598340000000001 0  0.496363 0.126778 0  0.479043 0.155715 0  0.439062 0.0805201 0  0.481795 0.126919 0  0.471875 0.1 0  0.489227 0.142159 0  0.515625 0.1 0  0.520062 0.147117 0  0.501244 0.161791 0  0.505431 0.112984 0  0.505344 0.14029 0  0.526563 0.119081 0  0.5181750000000001 0.131908 0  0.539868 0.136937 0  0.460937 0.108383 0  0.474242 0.114415 0  0.460937 0.0810483 0  0.487841 0.167168 0  0.526563 0.0612217 0  0.526563 0.106406 0  0.537619 0.112743 0  0.58125 0.1 0  0.559375 0.1 0  0.482812 0.08105569999999999 0  0.471883 0.0587655 0  0.570312 0.129396 0  0.548437 0.07598340000000001 0  0.504687 0.08105569999999999 0  0.49375 0.0470127 0  0.570312 0.112663 0  0.592798 0.12103 0  0.553986 0.12103 0  0.570312 0.0805201 0  0.48125 0 0  0.114787 0.2 0  0.160769 0.284765 0  0.175816 0.288361 0  0.162602 0.116048 0  0.154687 0.07598340000000001 0  0.176562 0.0805201 0  0.0598995 0.147547 0  0.307812 0.109924 0  0.291279 0.117157 0  0.278491 0.112989 0  0.285937 0.07598340000000001 0  0.307812 0.0805201 0  0.296928 0.196743 0  0.318141 0.218507 0  0.330208 0.227509 0  0.301397 0.225668 0  0.302706 0.241401 0  0.292574 0.21424 0  0.282762 0.230935 0  0.284351 0.244775 0  0.269553 0.23261 0  0.278572 0.217242 0  0.226924 0.342606 0  0.446928 0.185396 0  0.515625 0.3 0  0.504687 0.288879 0  0.515256 0.276534 0  0.529479 0.285328 0  0.58125 0.3 0  0.541969 0.272936 0  0.559375 0.3 0  0.556796 0.282529 0  0.543473 0.287206 0  0.581429 0.267774 0  0.566728 0.271171 0  0.570869 0.255585 0  0.577404 0.283865 0  0.603125 0.3 0  0.597531 0.28035 0  0.570312 0.338778 0  0.592188 0.292492 0  0.603513 0.256094 0  0.614063 0.286265 0  0.610329 0.27064 0  0.632708 0.251285 0  0.657223 0.261594 0  0.618789 0.257807 0  0.614188 0.22987 0  0.630935 0.265614 
[...]
<PointData  Vectors="v"> 
	<DataArray  type="Float64"  Name="v"  NumberOfComponents="3" format="ascii">
0.0 0.0 0.0 0.0 0.0 0.0 0.0 0.0 0.0 0.0 0.0 0.0 0.7962369486701291 -0.19599452308151308 0.0 0.8404010959697172 0.20775728500621204 0.0 1.16797520428988 -0.0595509203960919 0.0 1.1372551360317145 0.05584704805988279 0.0 0.0 0.0 0.0 0.0 0.0 0.0 0.0 0.0 0.0 0.0 0.0 0.0 0.0008675773409058987 0.0008163089612048473 0.0 0.0007352033094695417 0.0011378728565656715 0.0 0.0006041062801373997 0.0010584510583160644 0.0 0.0 0.0 0.0 0.0 0.0 0.0 0.0 0.0 0.0 0.0 0.0 0.0 0.0 0.0 0.0 0.0 0.0 0.0 0.0 0.0 0.0 0.0 0.0 0.0 0.0 0.0 0.0 0.0 0.0 0.0 0.0 0.0 0.0 0.0 0.0 0.0 0.0 0.0 0.0 0.0 0.0 0.0 0.0 0.0 0.0 0.0 0.0 0.0 0.0 0.0 0.0 0.0 0.0 0.0 0.00033821944941990153 -0.0005893863810367248 0.0 -0.00018353872905354786 0.00045293231674276463 0.0 0.000828439224360645 -0.0007603363946321989 0.0 0.0 0.0 0.0 0.0 0.0 0.0 0.0 0.0 0.0 0.0 0.0 0.0 0.0 0.0 0.0 0.7613281381582122 -0.0013061889417970748 0.0 1.275592479826143 0.08293548676641681 0.0 1.2662118521671184 -0.07737573360485663 0.0 0.0 0.0 0.0 1.3536361983866652 -0.13297821108817062 0.0 1.3581850893137908 0.15486977815143121 0.0 0.0 0.0 0.0 0.0 0.0 0.0 1.0 0.0 0.0 0.0 0.0 0.0 0.0 0.0 0.0 0.0 0.0 0.0 0.8425995052590424 -0.2319060355256632 0.0 1.151413147825372 -0.34433765736373256 0.0 0.8637758753857347 0.229288043518789 0.0 1.1662671150943211 0.3540982587057937 0.0 0.4282347387989756 -0.003997333908370209 0.0 0.16532758276467605 0.0625523328871079 0.0 0.1695007211366823 -0.06082845343355924 0.0 -0.027437007689228705 -0.03831087714597534 0.0 -0.025849257402705123 0.036230125964866786 0.0 0.33438246660125814 -0.27987298729885074 0.0 0.8579037024606497 -0.6734817737260675 0.0 0.6400044523104369 -0.6881760551023841 0.0 1.2061506237587394 -0.6133123829309923 0.0 0.41585455545942246 -0.06894761930358723 0.0 0.33044186331879577 0.26871742204273 0.0 0.6428189368990942 0.6692996292631604 0.0 1.1851333884611346 0.6153738149211035 0.0 0.4077219331489523 0.07167231889896096 0.0 1.3132326217705768 0.260939784705588 0.0 0.32325278483143666 0.25174047359196267 0.0 1.3026535177312126 -0.24050258404724456 0.0 0.3142391863522864 -0.23949537187605308 0.0 -0.03343321528730061 -0.016959912905875993 0.0 1.1248739813431616 -0.3987628458930757 0.0 1.0932089648855365 -0.7243558432174776 0.0 0.8520407550241537 0.7707248735945756 0.0 1.1313618536340277 0.3995468842982539 0.0 0.7593796718892181 0.1859878216558549 0.0 0.10875349851612433 0.05140086153013744 0.0 0.769309470398113 -0.1819353255381672 0.0 0.11111281878792224 -0.04987260136969539 0.0 -0.029502070341040874 0.01902765639623622 0.0 1.0274941663267265 0.7188685106661097 0.0 0.44237031084624967 0.5291682979591465 0.0 0.4578198134186015 0.17763287658324603 0.0 0.27114369502733165 0.06899815158307865 0.0 0.46427699748482243 -0.17376966134410185 0.0 0.2767360013706536 -0.06462470521195418 0.0 -0.07499579246267724 0.002243041518069374 0.0 0.9654683314984862 0.3174070193647472 0.0 1.2605444103051624 0.31321300822013404 0.0 1.245082403078379 0.28887288904344083 0.0 1.234850512215736 -0.30766538410132976 0.0 1.2478563621504772 -0.2810393127774704 0.0 1.2201350990793527 0.33103669965729743 0.0 1.2261351599740975 -0.3226762384254108 0.0 0.4428977545080148 -0.5445979353061394 0.0 0.8020195807977669 -0.1396496242387154 0.0 0.6715172476008202 -0.4197237920020075 0.0 0.8773546099828043 0.5938276059556489 0.0 0.7993013997582601 0.14278545519889896 0.0 0.6764822640107567 0.42012740797961523 0.0 1.2927188980994246 -0.007181321119102431 0.0 0.2931284626599858 0.14425219646897067 0.0 0.29447833527224876 -0.13434618563403086 0.0 -0.05424249722039557 -0.012962747466931924 0.0 1.2650506839092697 0.4718206339203272 0.0 0.7686771873815889 0.12093496730663658 0.0 1.261124999131797 -0.47330383085004396 0.0 0.7891150267454184 -0.1155237227416382 0.0 1.2755781366053318 0.4180718231125107 0.0 1.2539848196299581 0.40114265363379575 0.0 1.2715794657108086 -0.41425962947550005 0.0 1.2447078785385637 -0.38113150360794695 0.0 0.5835301877308395 -0.16055133274419633 0.0 0.7964392872383647 -0.3318280233490732 0.0 1.0104173510067322 0.6037902078265724 0.0 0.5917461004339127 0.15058513247021638 0.0 0.8125534093055502 0.3316871796675274 0.0 0.745827889719351 0.08082380021152952 0.0 0.7825627124089799 -0.07302315388075103 0.0 0.05216375226185785 -0.022110727806094903 0.0 1.3634591961478324 0.20749204751322617 0.0 0.9298295001201714 -0.3222362047570793 0.0 1.3445696330094588 -0.1900285925899335 0.0 0.4091731984988208 0.09080126049847698 0.0 0.42693613865999863 -0.07821505143768699 0.0 -0.05447702224992386 -0.008213715192982076 0.0 1.057349384958246 0.3540056392508808 0.0 0.943149431422082 0.39146577299651697 0.0 0.9221797694606191 0.1123882049907167 0.0 0.8242582599301098 -0.08688910618010305 0.0 1.306835437990273 0.01664419101398218 0.0 1.0275182956480908 -0.34520206245973983 0.0 1.074494987431438 -0.570338832239736 0.0 0.9301383711430798 -0.38940790531080127 0.0 0.9974722583988785 -0.43866247400024905 0.0 0.9329366152177616 -0.5428436218477035 0.0 0.8655367056543775 -0.4065153411086059 0.0 1.2733865453775657 0.23292866704394313 0.0 1.271508805647479 -0.21957554257894385 0.0 0.8526596512578547 -0.23564322087548936 0.0 0.8790549760290799 -0.3099657849650474 0.0 0.8528997935527192 -0.29905989240669356 0.0 0.8514143950847038 -0.2564102697600663 0.0 0.8542161093186436 -0.2527906988132073 0.0 0.8962787812667445 -0.3194774704545451 0.0 1.3292182998284154 0.315632798319141 0.0 1.0845122077888316 -0.0024203560900286076 0.0 1.3145738350058407 0.3623838765713206 0.0 1.3213627773668648 -0.2960616135718512 0.0 0.0 0.0 0.0 0.0 0.0 0.0 1.299449134645823 -0.3494778860841078 0.0 0.7142469035878098 -0.26733622342135793 0.0 0.8203944679953923 -0.2107808564012173 0.0 0.8711726986375866 -0.11076873034621121 0.0 0.8624431145545147 -0.1637811376922636 0.0 0.9375 0.0 0.0 0.7500000000000001 0.0 0.0 0.722469097777832 0.26528849719544084 0.0 0.8240335642228948 0.20013175252862253 0.0 0.7499999999999999 0.0 0.0 0.8697144231840557 0.12781094084948258 0.0 0.928711502614718 0.04282732745444015 0.0 0.8481107356097946 0.04505476192138483 0.0 -0.03480907125470002 -0.011643943364996691 0.0 0.09134677189058128 -0.01762322251216435 0.0 1.1150039072899285 0.5547766274433851 0.0 1.0190034953964078 0.4731439878163675 0.0 0.8809675988654095 0.2454672373946485 0.0 1.2000508829511127 0.139071445487276 0.0 1.3288362483592855 0.059834249979797145 0.0 0.3518140898989829 0.03797383416150078 0.0 1.35613493288906 0.10290459722611998 0.0 0.7138708742597932 0.05374393508225303 0.0 1.1711260710659368 0.10024032331053258 0.0 0.5144589170135777 0.015826149707901426 0.0 0.4960823497345762 0.030026083284451197 0.0 0.06969263923334594 0.013384350121109225 0.0 0.9565941528927757 0.03453275659766062 0.0 0.2569490767363683 0.022139338943979 0.0 0.16313515860782388 0.008495848755655738 0.0 0.267483867964145 0.014605611758448902 0.0 0.6665230840147922 -0.004816655158284408 0.0 0.4982014628616316 0.006995679895719275 0.0 1.3157279348948097 0.01932404398734195 0.0 0.5424430979581396 0.06223412873575091 0.0 1.2302378491773571 -0.1419841237340248 0.0 0.20180336827150405 -0.037583308504174254 0.0 1.2057971280776894 0.17357988114580117 0.0 0.8828210779621829 0.17973547320712296 0.0 0.7011268537585358 -0.16795947302124295 0.0 1.1155637917057393 -0.09421181845609751 0.0 1.0385516071065655 -0.22375867833827173 0.0 0.8637535397524186 -0.18266262451299262 0.0 0.8754194009877589 -0.02560696250833819 0.0 0.4392991899189146 -0.04804380089254796 0.0 0.29026173646670805 -0.03307087773458897 0.0 1.328966365129499 -0.04189041911932764 0.0 0.2083863720706949 -0.013529825962294458 0.0 1.3554413414515887 -0.08634886338621402 0.0 0.19134857628789792 -0.019104892817293294 0.0 0.535484703886413 -0.01568096238685622 0.0 -0.0015683060135363185 -0.011317225494927438 0.0 0.5721660987700663 -0.03142869519916229 0.0 0.8788862447744032 0.29715003299442644 0.0 0.8795536220108601 0.41076531583538445 0.0 0.8850883706013147 0.27033360855329375 0.0 0.9122177972929241 0.10984231400798022 0.0 0.8651750465995802 0.22329201378132585 0.0 0.9047221956015766 0.30371632060076387 0.0 0.8572333828821957 0.23351906317688395 0.0 0.8020233365380964 0.1833800853893026 0.0 0.8670526243798113 0.161526630572794 0.0 0.0 0.0 0.0 0.8415158311024356 0.17669140501842417 0.0 0.8706531174699913 0.17101669626397473 0.0 1.2131394705134262 0.049775963123059985 0.0 1.237560858736377 0.06497437231058117 0.0 0.8901624562449305 0.013231481525363516 0.0 0.5938814366720486 -0.025968965166770372 0.0 1.2798773854244534 0.1471114962848696 0.0 0.7176207818816738 -0.17373058673773398 0.0 1.1780055709799462 -0.16454104687361876 0.0 0.998647560622268 -0.019796705381670932 0.0 1.32359025289739 -0.007726322893222842 0.0 0.5854185359867241 -0.00014189024883655467 0.0 1.220472993353071 -0.012600301786208527 0.0 0.9834859757589655 0.009214127269491394 0.0 -0.004544795591530241 -0.007137012608516667 0.0 -0.0961394235827944 0.0010253435675328562 0.0 0.9448512181941552 0.3412264486716266 0.0 0.8777012496099446 -0.01841824630156674 0.0 0.4273129500688681 -0.00818309916279043 0.0 0.0 0.0 0.0 1.3286733219018905 0.037513907132904166 0.0 1.21257019754974 0.02496381033496384 0.0 1.3172541174259575 0.11461391188746355 0.0 1.2524458356017694 -0.0443275192287857 0.0 0.4134277145977091 -0.013806061135296586 0.0 1.2283471556639427 0.010503671937060565 0.0 1.2912093812807135 0.05689301724710022 0.0 0.04100252147472083 -0.009923638149247002 0.0 -0.08245640793950369 -0.005277035500085875 0.0 -0.06764856264970254 -0.007611434823094707 0.0 -0.08113044058691501 0.002905494302283308 0.0 1.185802194403018 0.2197369012799367 0.0 0.7774441857937455 0.19847379995012704 0.0 0.7779115781837587 0.15422605117634058 0.0 0.7857357758260911 0.10690190751454612 0.0 0.6205714868159413 0.11097732488016798 0.0 0.35275863300378285 0.0014294768579599304 0.0 0.0930711802539847 0.003826122381934869 0.0 0.36448038243237113 -0.020630793176127902 0.0 1.0719764353229733 0.07674138609086667 0.0 0.0 0.0 0.0 0.5198071381133674 0.011373465895873132 0.0 0.9318917139476633 0.02919693616067426 0.0 -0.10946113548712828 0.00045895601105502105 0.0 1.0970027672073281 0.2670355859797267 0.0 0.9003320943440808 0.11238836549574395 0.0 1.2802967525115247 -0.04952609119543295 0.0 0.1866677313641768 -0.0037557469458998458 0.0 0.35877283212215816 0.017748856395897232 0.0 0.1430221790966945 4.763340679646039e-05 0.0 1.302983643348172 0.039266780178989304 0.0 -0.10613083731775319 -0.0017184613178807251 0.0 -0.07752911157939248 -0.006670369993631834 0.0 -0.09780680064190694 -0.00470238278776439 0.0 -0.043669899714571525 0.006914859074282251 0.0 -0.09573363876295779 0.0009275119538828946 0.0 -0.11596994422286158 -9.25602700307095e-05 0.0 -0.0669074133989196 -0.0021736788364160476 0.0 -0.041603857579684496 0.003342235632603158 0.0 -0.11978727867653485 -0.002177796403552186 0.0 0.07492406902967079 -0.0020812858946104057 0.0 -0.03901018004511429 0.005576918396873555 0.0 -0.12326607588438306 -0.0012279358762219165 0.0 -0.12192194702448293 -0.0008684375263267466 0.0 -0.024097181346190596 -0.002530816408255884 0.0 0.0 0.0 0.0 0.9464088730438034 0.2554573314872428 0.0 0.9513520325088489 0.04009766574539958 0.0 0.22449395747452364 -0.004461977575577465 0.0 0.30852262676889786 -0.004561343466804874 0.0 0.5442701435183338 0.02089543756710254 0.0 0.9123277392615592 0.042989890105766655 0.0 1.1920911675329864 0.03456064517422777 0.0 1.3537189997958727 0.014661009035116314 0.0 0.08801110840020997 0.0021103319184627633 0.0 -0.03620656873479817 -1.5922721387851037e-05 0.0 0.022195020621746567 -0.011682692158171873 0.0 0.13497022211221874 -0.008829517356132471 0.0 0.1250879014370237 -0.013890713451472123 0.0 0.3150021548133207 -0.02335369637907994 0.0 0.5747384246489992 -0.05098415200441608 0.0 0.8592051340923699 -0.0525067573315599 0.0 0.36622760195725357 -0.0318425146787084 0.0 0.5548101212855429 -0.03593029601111998 0.0 0.6501043097081008 -0.04785684293278458 0.0 0.7698854441802022 -0.04114707385844428 0.0 0.25856025787063647 -0.02829648728248592 0.0 1.272770293688009 -0.06465763755614518 0.0 1.058392049499743 -0.05189486385160138 0.0 1.2864928237937636 -0.0291192393168625 0.0 1.0488778209990266 -0.0397795724980592 0.0 -0.04326827992942571 -0.00877719826262823 0.0 1.0269045037125735 -0.06706402266759354 0.0 1.0600327923407546 -0.03012910982279652 0.0 1.2269727704016185 -0.10345826333972723 0.0 -0.109129950637765 -0.0021154488865837624 0.0 0.4598262093704957 -0.04569390501665897 0.0 1.2513711711513873 -0.10539554030089154 0.0 0.13100203326163995 -0.02174651403076162 0.0 -0.1222857911580965 -0.0008795768503782477 0.0 1.2614819427647992 -0.08734366161704456 0.0 0.0625963381271488 -0.020873605054488077 0.0 -0.11183531307592437 -0.0025099576744792543 0.0 -0.02646804974708923 0.010038639567175453 0.0 0.04510953329270294 -0.017583899926712745 0.0 -0.06813886064772663 -0.00783957153124037 0.0 0.41793080809490757 -0.04889431196224909 0.0 -0.04811840479454891 -0.010480124842686588 0.0 0.112004919441131 0.030671774781182107 0.0 -0.08264225788483293 0.005791607183413582 0.0 -0.07328022151465574 -0.005938631819535281 0.0 -0.09986522107374839 0.0008986524821176155 0.0 0.03925196203636703 0.017281346796176905 0.0 1.2154817748119664 0.1025415384801743 0.0 0.32749401338359063 0.03742602480002598 0.0 0.3038561915805426 -0.04448777662768684 0.0 0.25534426894300755 -0.01025578281856524 0.0 0.7078765851397107 -0.020666582922145092 0.0 0.3060730297390436 0.005520491890537139 0.0 1.176655672778244 0.05297593488536052 0.0 0.8889059922674906 0.06098838943475013 0.0 0.9288413360578565 -0.0827200248453298 0.0 -0.04786112854190935 -0.004316396074847089 0.0 -0.05919906309221099 -0.003790573707042231 0.0 -0.11932682974454499 -0.0015930460627296445 0.0 -0.045872492487050213 0.003982569102861047 0.0 -0.07994114045593852 -0.004279239488621682 0.0 0.32524503079030437 -0.03853101100235286 0.0 1.2581925808865848 -0.09343425259674061 0.0 0.625574115885524 -0.06159404245292945 0.0 0.8932535704190692 -0.08574520336441775 0.0 -0.02919595445354858 0.013095267037653518 0.0 0.060219085926158995 -0.0225960901669323 0.0 -0.008083818322687382 -0.01439649629753574 0.0 0.2076400427507348 -0.03823039819547408 0.0 -0.01702365543058787 -0.014104861709229033 0.0 1.253055272077278 0.10623011489479096 0.0 -0.06729848337122314 -0.0005295687929496728 0.0 -0.015324162987070561 0.011426241373779568 0.0 -0.05194593458131601 0.0007258719333710718 0.0 0.05393853308200158 -0.021005965749515784 0.0 0.33711028609408283 0.024548899391540934 0.0 0.6875016543667208 -0.06997539107926065 0.0 0.5066657366118947 -0.05962935347166426 0.0 0.7864929799638408 -0.06830395419257469 0.0 0.26388430478799196 -0.03822571898692515 0.0 0.8187176838009277 -0.08738796088159205 0.0 1.166278140789197 -0.09096242301018168 0.0 1.0672490224065667 -0.08359468661208135 0.0 1.040491074403002 -0.07513249454170719 0.0 0.5913918230157335 -0.069227450518817 0.0 0.5028658486942795 -0.06416950368285496 0.0 0.3901615351402894 -0.05690672467817291 0.0 0.36548564653115867 -0.053635184650013455 0.0 0.1435546370391894 -0.032495657057089504 0.0 0.7863366850191844 -0.08794953254627727 0.0 0.2594958835635165 0.01462724904532506 0.0 0.6066860978656038 0.03780366502502098 0.0 0.06679730258417502 0.005890500163405014 0.0 0.1713451721393066 0.0177217035242675 0.0 -0.07054457541269105 0.0001561695636030225 0.0 1.3327317754258043 -0.02440880118340086 0.0 1.217919685105691 0.041147038887431285 0.0 1.355168744015804 -0.012042470575826447 0.0 1.3267398739675833 -0.06313694793372168 0.0 0.16841540201134028 -0.03531038213408977 0.0 0.3565563483468845 -0.05411322342799367 0.0 0.5585919294553059 0.04675609775639146 0.0 0.08696236773873643 0.015490906422179877 0.0 1.3082221851243845 0.004075431901616453 0.0 1.3482411326477493 -0.032945950796698244 0.0 0.517151998949464 0.06882625098313326 0.0 1.32714942143496 -0.07660578656168057 0.0 0.5884990123072766 0.04324489869645804 0.0 1.2824449947820915 0.07196787001004828 0.0 0.33255900190445553 0.03355394539570805 0.0 0.7039527236726497 0.06379399815305685 0.0 1.3347247365214536 0.024154842233723148 0.0 1.23126816147042 -0.024184611086358703 0.0 1.3178539525107993 -0.08661227727810197 0.0 0.824818968452953 0.06136789373171387 0.0 1.0476988672203194 0.07899576779502925 0.0 1.1069209687502861 0.07236893202100829 0.0 1.266659213730609 0.09865197272935536 0.0 1.1283866659952493 0.09743115279112365 0.0 0.9747145294332034 0.0813260074371056 0.0 0.6685960048181119 0.06739376701341085 0.0 1.2735617260165315 -0.08988590492389738 0.0 0.0 0.0 0.0 1.3079519166510452 0.05784090050520868 0.0 0.9167048214127679 0.08971051481343345 0.0 0.32510308669957344 0.0420242455448506 0.0 1.3158851385294341 0.0716701590170402 0.0 0.8991770657998793 0.0854534038856374 0.0 1.2706183918233553 0.09138455791508193 0.0 0.5979089936244127 0.0663459831869439 0.0 1.2616369313552867 0.1037541851540011 0.0 0.5488005532589539 0.06835715382175359 0.0 0.2555969886964382 0.0403886612593216 0.0 1.1463734839815813 0.10174498142270032 0.0 0.6611082469961926 0.07490901344289928 0.0 1.0720159841242352 0.10356775505880224 0.0 0.844228784410406 0.09070738971366774 0.0 0.7751714434805373 0.0889087572922034 0.0 1.1955346959917998 0.0887852898027999 0.0 1.1159468165463262 0.09196373864680102 0.0 1.3061774811753986 0.08196617362544684 0.0 0.1555020447443619 0.028927154938200115 0.0 1.1519748531818261 0.07914704605067341 0.0 1.2160978604427966 0.10666888169209858 0.0 1.1568664442315761 0.10764484553461513 0.0 1.233007582950411 0.10714401310041137 0.0 1.2431739236266581 0.10829783492371735 0.0 1.2910841502065538 0.08716651532725019 0.0 1.1831475526730997 0.06849812454543455 0.0 0.9441998038914605 0.10151839445231567 0.0 1.228932211721511 0.09256895305223127 0.0 1.278856910359509 0.0907859799330505 0.0 1.0450075985801586 0.06531770336955858 0.0 1.16167211762639 0.10960570362829473 0.0 1.078281824941391 0.10801225437583242 0.0 1.0590570977760825 0.10628613422175014 0.0 1.2319654025939855 0.0968119904173938 0.0 0.0 0.0 0.0 0.6445054470863596 -0.005610078152773989 0.0 1.077820337959008 0.43423641827177206 0.0 1.1668855365087654 0.42225013581487153 0.0 1.0822647044840144 -0.42679280165162675 0.0 0.8656147188934807 -0.22702942894420866 0.0 0.9789041856249228 -0.2555206794317353 0.0 0.8923702471139536 -0.08500190117974972 0.0 1.2228751305519887 -0.05227264780252842 0.0 1.0815102776694911 -0.06398099261672587 0.0 1.1987660293663827 -0.10442858789320399 0.0 1.265187822883148 -0.08453272722554092 0.0 1.315353905086222 -0.053684497407306915 0.0 -0.08309711282241761 -0.002632970398291324 0.0 -0.0503602191015349 0.007615566253909418 0.0 0.0006985673286547589 0.009975140155442352 0.0 0.0006466319372596997 0.011982192193781563 0.0 0.1466263506100104 0.026779768948688647 0.0 -0.05706385950698503 0.008134842080846383 0.0 0.06115749109715996 0.021845115115153444 0.0 0.21673213733777688 0.03707852189493715 0.0 0.08484340624262926 0.038134349900890735 0.0 -0.03605873259891627 0.014968051411993115 0.0 1.0348259162430786 0.1607836845141726 0.0 -0.0702647808262719 0.0045777204180768765 0.0 1.2550299365205762 -0.10044104579582591 0.0 1.1422952075237136 -0.09805515112114846 0.0 0.9511414868021856 -0.09226304228258113 0.0 1.1045703160206168 -0.10193710097398659 0.0 1.240212503650147 -0.10647444542598536 0.0 0.9138691890222028 -0.09513206633101737 0.0 1.2477077825825935 -0.10660580079682158 0.0 1.0786871172881474 -0.10470328362465911 0.0 1.1337649406386756 -0.10468787708834136 0.0 0.865045407328969 -0.09456453900467662 0.0 0.9084356765340611 -0.09696911851321866 0.0 0.6275094026718375 -0.07731634654218228 0.0 1.105358293345683 -0.1072861147673801 0.0 1.2340300913070679 -0.1063361789424681 0.0 1.0701639490050527 -0.105147410882265 0.0 1.1682634389300333 -0.08587819212202288 0.0 1.1940466429165564 -0.10849774466379959 0.0 0.6839003758932366 -0.08143513956883411 0.0 1.1421562768034645 -0.10575433162598588 0.0 0.9408288128107105 -0.09849988090527127 0.0 0.6390361067506867 -0