<?xml version="1.0"?>
<VTKFile type="UnstructuredGrid"  version="0.1"  >
<UnstructuredGrid>
<Piece  NumberOfPoints="1289" NumberOfCells="2413">
<Points>
<DataArray  type="Float64"  NumberOfComponents="3"  format="ascii">0 0 0  0 0.41 0  2.2 0.41 0  2.2 0 0  0.1 0.1 0  0.1 0.3 0  0.8 0.3 0  0.8 0.1 0  0.25 0.2 0  0.248976 0.210065 0  0.245948 0.219718 0  0.241038 0.228563 0  0.234448 0.23624 0  0.226448 0.242432 0  0.217365 0.246888 0  0.207571 0.249423 0  0.197468 0.249936 0  0.187467 0.248404 0  0.17798 0.24489 0  0.169395 0.239539 0  0.162062 0.232569 0  0.156283 0.224265 0  0.152293 0.214968 0  0.150257 0.205058 0  0.150257 0.194942 0  0.152293 0.185032 0  0.156283 0.175735 0  0.162062 0.167431 0  0.169395 0.160461 0  0.17798 0.15511 0  0.187467 0.151596 0  0.197468 0.150064 0  0.207571 0.150577 0  0.217365 0.153112 0  0.226448 0.157568 0  0.234448 0.16376 0  0.241038 0.171437 0  0.245948 0.180282 0  0.248976 0.189935 0  1.1 0 0  1.1 0.41 0  0.1 0.2 0  0.45 0.1 0  0.45 0.3 0  0.55 0 0  0.275 0.1 0  0.275 0.3 0  0.275 0 0  0.55 0.41 0  0 0.205 0  0.825 0 0  0.825 0.41 0  0.275 0.41 0  0.1 0.15 0  0.1875 0.1 0  0.1 0.25 0  0.1875 0.3 0  0.132322 0.2 0  0.241426 0.253518 0  0.241426 0.146482 0  0.264574 0.17974 0  0.264574 0.22026 0  0.138434 0.187348 0  0.153372 0.150948 0  0.148413 0.164094 0  0.176495 0.136535 0  0.22768 0.143571 0  0.138434 0.212652 0  0.148413 0.235906 0  0.176495 0.263465 0  0.22768 0.256429 0  0.23125 0.3 0  0.24769 0.24094 0  0.23125 0.1 0  0.24769 0.15906 0  0.26253 0.193641 0  0.190482 0.137872 0  0.166753 0.146661 0  0.157737 0.244461 0  0.190482 0.262128 0  0.203107 0.261264 0  0.253635 0.22977 0  0.203107 0.138736 0  0.253635 0.17023 0  0.261028 0.206206 0  0.167707 0.251809 0  0.143629 0.224191 0  0.215302 0.2591 0  0.270465 0.245894 0  0.215302 0.1409 0  0.270465 0.154106 0  0.284052 0.202587 0  0.14375 0.3 0  0.209375 0.3 0  0.225966 0.278501 0  0.209375 0.1 0  0.225966 0.121499 0  0.211613 0.273759 0  0.211613 0.126241 0  0.143629 0.175809 0  0.1 0.175 0  0.133484 0.164832 0  0.144491 0.249539 0  0.1 0.225 0  0.133484 0.235168 0  0.3625 0.3 0  0.25691 0.253381 0  0.25691 0.146619 0  0.277205 0.188698 0  0.184724 0.275712 0  0.237372 0.268285 0  0.184724 0.124288 0  0.237372 0.131715 0  0.197578 0.273149 0  0.193656 0.286994 0  0.197578 0.126851 0  0.193656 0.113006 0  0.122953 0.187671 0  0.118362 0.153758 0  0.155372 0.258107 0  0.122953 0.212329 0  0.118362 0.246242 0  0.276394 0.27264 0  0.276394 0.12736 0  0.280965 0.170013 0  0.253125 0.3 0  0.14375 0.1 0  0.253125 0.1 0  0.269489 0.26014 0  0.269489 0.13986 0  0.303639 0.184297 0  0.165625 0.3 0  0.134742 0.273113 0  0.257831 0.274737 0  0.255279 0.128499 0  0.3625 0.1 0  0.165625 0.1 0  0.162031 0.132368 0  0.134955 0.126405 0  0.149334 0.125568 0  0.142936 0.139597 0  0.12695 0.140259 0  0.242514 0.285501 0  0.242514 0.114499 0  0.1 0.125 0  0.117483 0.12555 0  0.11154 0.139776 0  0.121875 0.1 0  0.109143 0.1125 0  0.126805 0.114 0  0.220313 0.29129 0  0.351562 0.287369 0  0.207222 0.2866 0  0.220312 0.10871 0  0.1375 0 0  0.20625 0 0  0.207222 0.1134 0  0.11722 0.17118 0  0.1 0.1625 0  0.0778409 0.16875 0  0.0862762 0.15625 0  0 0.15375 0  0 0.1025 0  0.11722 0.22882 0  0.1 0.2375 0  0 0.3075 0  0.0862762 0.23125 0  0.0598995 0.222547 0  0.0860223 0.2125 0  0.289584 0.181469 0  0.300267 0.16446 0  0.163832 0.269071 0  0.149597 0.273325 0  0.1 0.275 0  0.268498 0.285953 0  0.31875 0.3 0  0.294154 0.254672 0  0.296875 0.3 0  0.293558 0.271845 0  0.285095 0.286799 0  0.324298 0.264316 0  0.307866 0.263745 0  0.317093 0.234901 0  0.315485 0.281219 0  0.316547 0.250625 0  0.344693 0.243731 0  0.331592 0.251147 0  0.35129 0.270663 0  0.338689 0.263683 0  0.340625 0.3 0  0.249849 0.264383 0  0.265097 0.11422 0  0.284688 0.156136 0  0.242188 0.324017 0  0.0856613 0.2625 0  0.132812 0.0612217 0  0.264062 0.0612217 0  0.198437 0.07598340000000001 0  0.0860223 0.1375 0  0.0794526 0.191089 0  0.285228 0.140397 0  0.298655 0.148737 0  0.31875 0.1 0  0.327335 0.15374 0  0.296875 0.1 0  0.312289 0.155283 0  0.313348 0.135607 0  0.321802 0.173916 0  0.298433 0.134116 0  0.112124 0.2625 0  0.127526 0.259083 0  0.121875 0.3 0  0.0682687 0.241503 0  0.1 0.2875 0  0.117762 0.28125 0  0.107813 0.3 0  0.103906 0.313849 0  0.0778409 0.28125 0  0.1375 0.41 0  0.0862762 0.29375 0  0.08886860000000001 0.24375 0  0.307812 0.338778 0  0.307812 0.292227 0  0.33216 0.279164 0  0.387888 0.266414 0  0.264063 0.31948 0  0.110937 0.07598340000000001 0  0.242188 0.07598340000000001 0  0.319914 0.11839 0  0.340625 0.1 0  0.334448 0.133793 0  0.329687 0.108539 0  0.346259 0.118491 0  0.360334 0.173636 0  0.327539 0.205033 0  0.132812 0.288712 0  0.362436 0.278836 0  0.368105 0.259418 0  0.4125 0.41 0  0.329687 0.324017 0  0.329687 0.292306 0  0.285938 0.318952 0  0.417187 0.338778 0  0.324481 0.14148 0  0.351562 0.106771 0  0.40625 0.1 0  0.341028 0.168342 0  0.319221 0.190479 0  0.335292 0.184501 0  0.305563 0.20794 0  0.220313 0.31948 0  0.132812 0.332772 0  0.0865876 0.311259 0  0.0598995 0.302453 0  0.0906541 0.343255 0  0.353543 0.255837 0  0.36574 0.237633 0  0.405007 0.254279 0  0.275795 0.352123 0  0.4125 0 0  0.35493 0.137394 0  0.366563 0.120618 0  0.35917 0.205246 0  0.198438 0.318952 0  0.0626109 0.263892 0  0.40625 0.3 0  0.354809 0.155936 0  0.386512 0.146872 0  0.373101 0.159939 0  0.384375 0.1 0  0.343394 0.19929 0  0.350682 0.185683 0  0.368101 0.189748 0  0.344016 0.221511 0  0.391108 0.213329 0  0.376279 0.204783 0  0.398843 0.182768 0  0.375804 0.222746 0  0.390665 0.196958 0  0.394004 0.23518 0  0.359883 0.222828 0  0.419908 0.204359 0  0.404243 0.204783 0  0.412615 0.224526 0  0.20625 0.41 0  0.165625 0.325257 0  0.0347982 0.244954 0  0.379558 0.247154 0  0.34165 0.147603 0  0.372264 0.136992 0  0.388988 0.121989 0  0.373437 0.108554 0  0.351562 0.31948 0  0.391367 0.16527 0  0.399572 0.223324 0  0.452011 0.227371 0  0.40877 0.239392 0  0.431491 0.237337 0  0.421224 0.250459 0  0.449619 0.262098 0  0.418865 0.276779 0  0.437063 0.252274 0  0.415673 0.263227 0  0.430988 0.266772 0  0.402767 0.273419 0  0.452967 0.244883 0  0.428125 0.3 0  0.408502 0.286186 0  0.384375 0.3 0  0.392267 0.285807 0  0.465927 0.219339 0  0.43489 0.283846 0  0.376424 0.286289 0  0.625 0.3 0  0.473533 0.205186 0  0.461713 0.255517 0  0.5375 0.3 0  0.465725 0.235405 0  0.44631 0.201425 0  0.471875 0.3 0  0.494307 0.227729 0  0.459448 0.206736 0  0.462294 0.180792 0  0.478933 0.227536 0  0.486793 0.21381 0  0.486322 0.251373 0  0.50065 0.215318 0  0.54005 0.175389 0  0.474633 0.189893 0  0.512916 0.208697 0  0.49531 0.199967 0  0.475889 0.175275 0  0.625 0.1 0  0.459311 0.153933 0  0.513645 0.242704 0  0.392892 0.248539 0  0.374815 0.271913 0  0.365974 0.14871 0  0.395312 0.109184 0  0.417061 0.123981 0  0.483196 0.277003 0  0.381967 0.179632 0  0.429898 0.219374 0  0.433473 0.206165 0  0.43149 0.181038 0  0.444208 0.215487 0  0.472985 0.247309 0  0.49375 0.3 0  0.475579 0.262714 0  0.49916 0.274293 0  0.501175 0.184809 0  0.514164 0.225681 0  0.543648 0.214977 0  0.5341630000000001 0.23481 0  0.527396 0.216171 0  0.5375 0.1 0  0.534548 0.202315 0  0.561545 0.192513 0  0.5494289999999999 0.201221 0  0.570923 0.218346 0  0.412582 0.149833 0  0.489327 0.264745 0  0.502439 0.254775 0  0.462391 0.271166 0  0.496775 0.241732 0  0.5294410000000001 0.268606 0  0.482812 0.291099 0  0.46879 0.285038 0  0.452663 0.284065 0  0.51789 0.257882 0  0.53408 0.252026 0  0.560142 0.243543 0  0.545708 0.243474 0  0.547532 0.229019 0  0.55282 0.265323 0  0.398971 0.153424 0  0.400349 0.135684 0  0.410135 0.168145 0  0.428823 0.161323 0  0.415266 0.183779 0  0.329687 0.0810483 0  0.395312 0.0612217 0  0.373437 0.318952 0  0.439062 0.324017 0  0.561816 0.229354 0  0.585029 0.239287 0  0.431827 0.139854 0  0.446796 0.168929 0  0.351562 0.07598340000000001 0  0.395313 0.318944 0  0.54337 0.150762 0  0.460937 0.31948 0  0.418412 0.137529 0  0.428125 0.1 0  0.442783 0.152332 0  0.450742 0.134294 0  0.373437 0.0805201 0  0.384383 0.342558 0  0.482812 0.318952 0  0.429239 0.127457 0  0.444274 0.117405 0  0.426548 0.113815 0  0.49375 0.1 0  0.488954 0.113984 0  0.457973 0.121842 0  0.471621 0.137346 0  0.515625 0.325257 0  0.48125 0.41 0  0.417187 0.07598340000000001 0  0.496363 0.126778 0  0.479043 0.155715 0  0.439062 0.0805201 0  0.481795 0.126919 0  0.471875 0.1 0  0.489227 0.142159 0  0.515625 0.1 0  0.520062 0.147117 0  0.501244 0.161791 0  0.505431 0.112984 0  0.505344 0.14029 0  0.526563 0.119081 0  0.5181750000000001 0.131908 0  0.539868 0.136937 0  0.460937 0.108383 0  0.474242 0.114415 0  0.460937 0.0810483 0  0.487841 0.167168 0  0.526563 0.0612217 0  0.526563 0.106406 0  0.537619 0.112743 0  0.58125 0.1 0  0.559375 0.1 0  0.482812 0.08105569999999999 0  0.471883 0.0587655 0  0.570312 0.129396 0  0.548437 0.07598340000000001 0  0.504687 0.08105569999999999 0  0.49375 0.0470127 0  0.570312 0.112663 0  0.592798 0.12103 0  0.553986 0.12103 0  0.570312 0.0805201 0  0.48125 0 0  0.114787 0.2 0  0.160769 0.284765 0  0.175816 0.288361 0  0.162602 0.116048 0  0.154687 0.07598340000000001 0  0.176562 0.0805201 0  0.0598995 0.147547 0  0.307812 0.109924 0  0.291279 0.117157 0  0.278491 0.112989 0  0.285937 0.07598340000000001 0  0.307812 0.0805201 0  0.296928 0.196743 0  0.318141 0.218507 0  0.330208 0.227509 0  0.301397 0.225668 0  0.302706 0.241401 0  0.292574 0.21424 0  0.282762 0.230935 0  0.284351 0.244775 0  0.269553 0.23261 0  0.278572 0.217242 0  0.226924 0.342606 0  0.446928 0.185396 0  0.515625 0.3 0  0.504687 0.288879 0  0.515256 0.276534 0  0.529479 0.285328 0  0.58125 0.3 0  0.541969 0.272936 0  0.559375 0.3 0  0.556796 0.282529 0  0.543473 0.287206 0  0.581429 0.267774 0  0.566728 0.271171 0  0.570869 0.255585 0  0.577404 0.283865 0  0.603125 0.3 0  0.597531 0.28035 0  0.570312 0.338778 0  0.592188 0.292492 0  0.603513 0.256094 0  0.614063 0.286265 0  0.610329 0.27064 0  0.632708 0.251285 0  0.657223 0.261594 0  0.618789 0.257807 0  0.614188 0.22987 0  0.630935 0.265614 
[...]
<PointData  Vectors="v"> 
	<DataArray  type="Float64"  Name="v"  NumberOfComponents="3" format="ascii">
0.0 0.0 0.0 0.0 0.0 0.0 0.0 0.0 0.0 0.0 0.0 0.0 0.7962367361958624 -0.1959950539579852 0.0 0.8404013463042836 0.20775649068377217 0.0 1.167969851169141 -0.05968837828889433 0.0 1.1372924005211902 0.05573051959379359 0.0 0.0 0.0 0.0 0.0 0.0 0.0 0.0 0.0 0.0 0.0 0.0 0.0 0.0008717467941373405 0.000823642696890631 0.0 0.0009145919568128473 0.0014485934937535278 0.0 0.0006560988125919383 0.0011484524255094097 0.0 0.0 0.0 0.0 0.0 0.0 0.0 0.0 0.0 0.0 0.0 0.0 0.0 0.0 0.0 0.0 0.0 0.0 0.0 0.0 0.0 0.0 0.0 0.0 0.0 0.0 0.0 0.0 0.0 0.0 0.0 0.0 0.0 0.0 0.0 0.0 0.0 0.0 0.0 0.0 0.0 0.0 0.0 0.0 0.0 0.0 0.0 0.0 0.0 0.0 0.0 0.0 0.0 0.0 0.0 0.0002868871562207712 -0.0005005213629498402 0.0 -0.0003606894614990734 0.0007597903682687986 0.0 0.0008244473718962874 -0.0007531975215895827 0.0 0.0 0.0 0.0 0.0 0.0 0.0 0.0 0.0 0.0 0.0 0.0 0.0 0.0 0.0 0.0 0.7613281506418622 -0.0013066301390550028 0.0 1.2756502692988625 0.08294024302835286 0.0 1.2661479075447268 -0.07736371011199698 0.0 0.0 0.0 0.0 1.3536363026173934 -0.13297484014719832 0.0 1.358186660699815 0.15486531670263956 0.0 0.0 0.0 0.0 0.0 0.0 0.0 1.0 0.0 0.0 0.0 0.0 0.0 0.0 0.0 0.0 0.0 0.0 0.0 0.8425993249167127 -0.2319064805884815 0.0 1.1514150585152985 -0.3443431941124603 0.0 0.8637762458433711 0.2292874904329459 0.0 1.1662656295197795 0.3540912512098429 0.0 0.42823473171135323 -0.003998944242593657 0.0 0.16548186546277144 0.06260456589652345 0.0 0.16935213205974078 -0.060768999676149425 0.0 -0.02745910203633244 -0.03831342377727726 0.0 -0.025842186392032503 0.03624339216379422 0.0 0.33438262038141936 -0.279874871603262 0.0 0.8579033197129016 -0.6734840413720153 0.0 0.6400043952964816 -0.6881775974230975 0.0 1.2061479515520372 -0.613315677029953 0.0 0.4159977121123849 -0.06889497525599482 0.0 0.33044177831674515 0.26871559249245897 0.0 0.6428192862452335 0.6692980603687209 0.0 1.1851371285273824 0.6153703689197263 0.0 0.40758784525981595 0.07172615398693802 0.0 1.3132274727008948 0.26094101963026406 0.0 0.32324788266887733 0.2516792828973984 0.0 1.3026590490495313 -0.2404981922310486 0.0 0.3143390934485868 -0.23962562928595948 0.0 -0.033443544951339096 -0.0169572065713845 0.0 1.1248617980103246 -0.398764034145762 0.0 1.0932064134270796 -0.7243570175649167 0.0 0.8520421965204557 0.7707240268300549 0.0 1.131376504926983 0.3995458651488233 0.0 0.7594015501474684 0.18598060930077245 0.0 0.10876407072479909 0.0513969770879689 0.0 0.7692911901587555 -0.18194250483522542 0.0 0.11111820674420764 -0.049898082897089927 0.0 -0.0295059321492458 0.019038571041260523 0.0 1.0274978014171685 0.7188683785405813 0.0 0.44237022044970187 0.5291666688738714 0.0 0.4577691226254115 0.1775443093053671 0.0 0.2711895496704484 0.06900602190286395 0.0 0.4643302245280946 -0.1738581190634526 0.0 0.276781242231993 -0.06463546837689436 0.0 -0.07500761745929012 0.0022436712797395475 0.0 0.9654685054059146 0.31740391319464617 0.0 1.2605398984202887 0.3132035913193949 0.0 1.2450796228384144 0.2888620443928398 0.0 1.2348555604505427 -0.3076726089985574 0.0 1.2478646987422244 -0.28104744150731104 0.0 1.220143210802616 0.3310225319124259 0.0 1.2261310212899235 -0.32268942749381035 0.0 0.442898002953208 -0.5445996299331082 0.0 0.8020195540094501 -0.1396500785828626 0.0 0.6715172175190344 -0.41972575022027026 0.0 0.877355572947684 0.5938258160069602 0.0 0.799301539466578 0.14278499683509535 0.0 0.6764826168461283 0.4201255901061426 0.0 1.2927054754139808 -0.007193450146478098 0.0 0.2931761707138683 0.1442352798905415 0.0 0.2944679374428466 -0.1343894286004181 0.0 -0.05425995479286944 -0.012959403958099556 0.0 1.2650540821828096 0.47181233313053755 0.0 0.7686618221117894 0.12094335915648816 0.0 1.2611230885446714 -0.47331093747395464 0.0 0.7891379090269356 -0.11551199309959842 0.0 1.2755835246772367 0.41806047355127535 0.0 1.2539842166220276 0.40113330352391297 0.0 1.2715763721816842 -0.41427002478187425 0.0 1.2447095760325193 -0.3811395599627596 0.0 0.5835301950116007 -0.16055273748244692 0.0 0.796439136962531 -0.3318291701034545 0.0 1.0104190731694809 0.6037876228914867 0.0 0.5917462529256186 0.15058373810203873 0.0 0.8125538028383724 0.33168598588304465 0.0 0.7458477497565295 0.08081851369107163 0.0 0.7825539899307766 -0.07303176497149667 0.0 0.052157722300518815 -0.022100602166184362 0.0 1.3634492077342104 0.2074876933204178 0.0 0.9298294904281371 -0.3222388220752594 0.0 1.344577817347499 -0.19003011646402035 0.0 0.4092228915380243 0.09079078981341036 0.0 0.4269285171969138 -0.0782348952183121 0.0 -0.05448524838712345 -0.008216254528089799 0.0 1.057349294739362 0.3540007107654106 0.0 0.9431502355884859 0.3914635162568388 0.0 0.9221673814227346 0.11239514227219888 0.0 0.8242759055382375 -0.08687590097512701 0.0 1.3068423163351055 0.016630716389755686 0.0 1.0275188549696705 -0.3452060755424958 0.0 1.074493789463827 -0.5703419893303124 0.0 0.9301379259573284 -0.3894099625231888 0.0 0.9974716434990406 -0.4386653764536477 0.0 0.9329360677110101 -0.5428456320135417 0.0 0.865536369253809 -0.4065168309406476 0.0 1.2734075925490862 0.23292600232325925 0.0 1.2714921003150859 -0.21957309264647104 0.0 0.8526594223892852 -0.23564371347985902 0.0 0.8790546924590036 -0.3099669879351823 0.0 0.852899532588331 -0.29906078250246126 0.0 0.851414279465812 -0.25641170306942307 0.0 0.8542158767587468 -0.252791605790143 0.0 0.8962785312985259 -0.3194791508538506 0.0 1.3292099926515855 0.31562059932454484 0.0 1.0845094804581543 -0.002435074761041793 0.0 1.3145714816873761 0.3623728516958253 0.0 1.3213727686791117 -0.2960707955903343 0.0 0.0 0.0 0.0 0.0 0.0 0.0 1.2994532031521857 -0.34948691465794063 0.0 0.7142468738639842 -0.2673373172259766 0.0 0.8203943615011643 -0.21078127603656344 0.0 0.8711726916595001 -0.1107684862996922 0.0 0.8624429668747446 -0.16378109645857095 0.0 0.9375 0.0 0.0 0.7500000000000001 0.0 0.0 0.7224693055896537 0.26528742776007624 0.0 0.8240338235897647 0.2001312723749135 0.0 0.7499999999999999 0.0 0.0 0.8697145702373528 0.1278109061702494 0.0 0.9287115646211996 0.04282791406722567 0.0 0.8481108706567009 0.04505479327191372 0.0 -0.03482197930279767 -0.011640086637153442 0.0 0.09134905385273275 -0.017616688351685405 0.0 1.1150059085310926 0.5547726928503228 0.0 1.0190046138803277 0.4731409718686362 0.0 0.8809679259880288 0.24546658211307992 0.0 1.2000541520400294 0.13906902808206562 0.0 1.3288336482780105 0.059825677913932576 0.0 0.35184903566707365 0.03797554459106073 0.0 1.3561303868852101 0.10289850711964277 0.0 0.7138826492913879 0.05373768869491494 0.0 1.1711279825113239 0.10023557385636704 0.0 0.5144868101487455 0.01581527418874595 0.0 0.49611573057550923 0.030021208697364722 0.0 0.06971689841477671 0.013365626550306216 0.0 0.9566016058607424 0.0345250182223665 0.0 0.25699208054479095 0.022126441073676756 0.0 0.16315820939336304 0.008467887436761476 0.0 0.2675173175708716 0.01458725789021782 0.0 0.6665388142329514 -0.004835492821043518 0.0 0.49822942847063495 0.006978886911845173 0.0 1.3157190443300835 0.01931460565125499 0.0 0.5424437392540065 0.06225910476045622 0.0 1.2302469979968942 -0.14198459231867422 0.0 0.20182056728410228 -0.03757947423328887 0.0 1.205789515463146 0.1735730525299076 0.0 0.8828213733851941 0.17973535274469563 0.0 0.7011269267630137 -0.16796079627522434 0.0 1.1155677921651945 -0.09421091728149356 0.0 1.0385546327738917 -0.22376283516243223 0.0 0.8637533568408299 -0.18266266042134366 0.0 0.8754194215511594 -0.0256067479404696 0.0 0.43931856898624855 -0.04804552829909825 0.0 0.2902738316929572 -0.033071482280810804 0.0 1.3289659289123603 -0.04189772766210246 0.0 0.2083939896459323 -0.013534538172057659 0.0 1.3554470173435704 -0.08635259242979808 0.0 0.19135703936766052 -0.01910334175310568 0.0 0.5354899323583417 -0.01568437741297247 0.0 -0.0015658959173909528 -0.011325465489667168 0.0 0.5721799887358172 -0.031430188860759864 0.0 0.8788867667811397 0.297148944463096 0.0 0.8795542480744389 0.41076372079030987 0.0 0.8850885900684585 0.2703317469168082 0.0 0.9122179503623904 0.10984271132115875 0.0 0.8651753313727697 0.22329120636449185 0.0 0.9047226576212398 0.30371481666498995 0.0 0.857233664945701 0.23351793753923386 0.0 0.8020235396292247 0.18337907202300796 0.0 0.8670528875185219 0.16152663133841916 0.0 0.0 0.0 0.0 0.8415160654289104 0.17669109588498902 0.0 0.8706533655504441 0.17101655792842074 0.0 1.2131311332381518 0.04977345261752139 0.0 1.2375608091356642 0.06496709784971834 0.0 0.890168887873318 0.013220669717045124 0.0 0.5938792238326263 -0.02600214315182056 0.0 1.2798715988769496 0.14710802830892192 0.0 0.7176206831333594 -0.17373145715599553 0.0 1.1780116091026247 -0.16454505737083394 0.0 0.9986545635106381 -0.01979924663474098 0.0 1.3235959899199563 -0.007736606663331806 0.0 0.585421290939177 -0.0001516660889903763 0.0 1.2204781094734602 -0.012604511729558234 0.0 0.9834887448125575 0.009202646516441742 0.0 -0.004524892004343673 -0.007172882543430792 0.0 -0.096139461725865 0.0010023011368706803 0.0 0.9448516951460312 0.3412240542279847 0.0 0.8777022439072542 -0.018436277914376756 0.0 0.42732745013041806 -0.008213683472214418 0.0 0.0 0.0 0.0 1.3286619287113117 0.037508919094154054 0.0 1.2125660163763508 0.02495382549251834 0.0 1.3172450872046686 0.11460882000113477 0.0 1.2524221655267673 -0.04432256682300047 0.0 0.41343436983865584 -0.013809373730910285 0.0 1.228353076625467 0.01049052571111434 0.0 1.291236615620715 0.05687637580626835 0.0 0.041014321545024685 -0.00994157988843763 0.0 -0.08245931281251254 -0.0052896576945612415 0.0 -0.06764366634367952 -0.007631777028047479 0.0 -0.08113562274173608 0.0028937385491481105 0.0 1.1857966202008865 0.21973267523961834 0.0 0.7774439876881992 0.19847178567131818 0.0 0.7779118174640304 0.15422565251245768 0.0 0.785735917936554 0.10690220712954443 0.0 0.6205716740469384 0.11097689150942062 0.0 0.35278152904315885 0.0014036985681893813 0.0 0.09308009251274242 0.003781983938925397 0.0 0.36446235528254617 -0.02068325117074321 0.0 1.0719678760328466 0.07673825945027173 0.0 0.0 0.0 0.0 0.5198142074356262 0.011356985768878534 0.0 0.9318973263380363 0.029178043798980195 0.0 -0.10945494052570502 0.0004133748321299612 0.0 1.0969996990021058 0.26702961105137746 0.0 0.9003322650607506 0.1123887636664826 0.0 1.2802617071668312 -0.04953517409033626 0.0 0.18668377889421914 -0.0037782626880985153 0.0 0.3587995036867102 0.017706853845764956 0.0 0.14304943483461904 8.155141822396047e-06 0.0 1.302999456521823 0.03924917755409889 0.0 -0.10612642525957326 -0.0017500671035505313 0.0 -0.07751846538335151 -0.0067030205843583365 0.0 -0.0977916959061492 -0.004752378799972891 0.0 -0.04366191830544166 0.006880406483495333 0.0 -0.09573184274628209 0.0008543450677106335 0.0 -0.11596189544674777 -0.00015313604203143444 0.0 -0.0668750665823011 -0.002251277458096944 0.0 -0.04160256377058479 0.003284421013941597 0.0 -0.11977237873233691 -0.0022510077693986704 0.0 0.07491481145242357 -0.0021455047516161494 0.0 -0.03900412025139634 0.005531937227293468 0.0 -0.12325945472207078 -0.0013262654707660803 0.0 -0.1219148534861345 -0.0009549985267023575 0.0 -0.024114199446154654 -0.0026163679215791915 0.0 0.0 0.0 0.0 0.9464077742468968 0.2554533528174017 0.0 0.9513520676369153 0.04009830970708112 0.0 0.2244980387692433 -0.0045078505447813085 0.0 0.3085318888004541 -0.00457184883974679 0.0 0.5442803544485144 0.020868196662838342 0.0 0.9123400876238628 0.04296193547351017 0.0 1.1921015741246146 0.034542302607325444 0.0 1.353705391838127 0.014654570319736859 0.0 0.08805076136515019 0.002050235143807706 0.0 -0.036215058225538714 -9.235206123480283e-05 0.0 0.02213949808005525 -0.011769838033204444 0.0 0.1349470374244034 -0.008899614761669214 0.0 0.12504222078969154 -0.013970202864403926 0.0 0.31496359143736 -0.0234149107730331 0.0 0.5746562698408548 -0.05102013606285715 0.0 0.8591664564515141 -0.05253272785930198 0.0 0.36616620876932104 -0.03190067705649034 0.0 0.554779261810857 -0.0359741671925004 0.0 0.6500524303132018 -0.04789458767646703 0.0 0.7698657049053711 -0.04117761445555412 0.0 0.2584779435926694 -0.028359570922170507 0.0 1.27272081492485 -0.06465911709198398 0.0 1.058358496582238 -0.05191304646646882 0.0 1.2864696700254772 -0.029131283046974363 0.0 1.0488573812487294 -0.03979934831643721 0.0 -0.04331999834936623 -0.00886390587267062 0.0 1.0268428801620932 -0.06707568275712593 0.0 1.0600208967007074 -0.030147152212383028 0.0 1.2270873346348037 -0.10343397294767899 0.0 -0.10913883577137815 -0.002201016795576866 0.0 0.4597226366221923 -0.04573200641906581 0.0 1.2513114686292675 -0.10530333741488478 0.0 0.13091281282498352 -0.021813774847084622 0.0 -0.12227807987930409 -0.0009828571538245743 0.0 1.2614058113558937 -0.087312023890578 0.0 0.06248961750896016 -0.020904776925328196 0.0 -0.11184333997384598 -0.002607000886505278 0.0 -0.026394501469554278 0.009950622628428888 0.0 0.045020406566264444 -0.0176409751985984 0.0 -0.06818698358393295 -0.007898766675268273 0.0 0.4177856793708927 -0.048907910330803106 0.0 -0.048182577701152196 -0.010507164022690753 0.0 0.11216035111358177 0.03078932485492333 0.0 -0.0825942214955885 0.005707544899618333 0.0 -0.0733172883716562 -0.00593355316683125 0.0 -0.09985398747182385 0.0008531445062133131 0.0 0.03935448581149764 0.0172129353816853 0.0 1.2153600941293576 0.10256223715466878 0.0 0.3276083505957715 0.0373623839222706 0.0 0.3036831801386478 -0.044452463368960776 0.0 0.2553371821109935 -0.010308897120550182 0.0 0.707880491896919 -0.02069253128736191 0.0 0.3060897290583695 0.005492294101817211 0.0 1.1766745525981084 0.05295288705213328 0.0 0.8889402501648523 0.06095394584047008 0.0 0.9287104558802168 -0.08269515529769933 0.0 -0.0478339393424351 -0.004376028005762904 0.0 -0.059222571218685176 -0.003887042818806196 0.0 -0.1193256609698659 -0.0016962749508539785 0.0 -0.045821774437821344 0.003884417588870485 0.0 -0.07996449088637385 -0.004380814034724243 0.0 0.32512727830025306 -0.038571235247791366 0.0 1.2581109445727716 -0.09338105130291077 0.0 0.6254452074659445 -0.06160328263992742 0.0 0.8930983779887816 -0.0856993346521843 0.0 -0.02910879656572786 0.013074399270529346 0.0 0.06009834142958078 -0.022575015453499186 0.0 -0.008165010491523354 -0.014276552778405522 0.0 0.20746798383204695 -0.038142359132902634 0.0 -0.017106558354371332 -0.014046248171594828 0.0 1.2531070800214175 0.10632556459792124 0.0 -0.06730057546816981 -0.00044669550013488695 0.0 -0.015262618094985957 0.011622467341649729 0.0 -0.05193778522036719 0.0008697477055183107 0.0 0.05384724914724052 -0.02078389058094488 0.0 0.33716263782593336 0.024486802064174962 0.0 0.6873487060974539 -0.06995862841653086 0.0 0.50649219547992 -0.05960248910817475 0.0 0.7863890390489771 -0.06831340949183738 0.0 0.26373580966860816 -0.03823455982847794 0.0 0.8185238049870756 -0.08729053630046958 0.0 1.1661756853570202 -0.09092330439416342 0.0 1.0671478770706133 -0.08357744934508873 0.0 1.040408668664841 -0.07513212152884945 0.0 0.5911941627046412 -0.06916144671092571 0.0 0.5026573457255386 -0.06407056701194926 0.0 0.3899631594386186 -0.05673573228516284 0.0 0.36528639628673304 -0.05350422371739225 0.0 0.14340316730997907 -0.032362052782125277 0.0 0.7861368927637619 -0.08781266059291182 0.0 0.2595383695414402 0.01457023837929297 0.0 0.6067131495156879 0.037762173860165504 0.0 0.06684948401519378 0.0058121901862444 0.0 0.17141822462861556 0.01764098739736213 0.0 -0.07050640482139829 6.591981942400367e-05 0.0 1.332739058921852 -0.024413385508825294 0.0 1.2179365864568827 0.041142972046418334 0.0 1.3551495566030582 -0.012047985077226429 0.0 1.3267065904281905 -0.06312276995136536 0.0 0.1682649034395461 -0.03512553805741183 0.0 0.3563999423757744 -0.053879735447882965 0.0 0.5586575105592709 0.04670284735113269 0.0 0.08704680776181005 0.015402884609690849 0.0 1.3082297536274274 0.0040696084316189625 0.0 1.3482157527636847 -0.03294846630388401 0.0 0.5173795227358935 0.06895415699744849 0.0 1.3271092438554328 -0.07657800427355027 0.0 0.5885454314254317 0.04319506245372976 0.0 1.2824866351236708 0.07195885911680702 0.0 0.33265041281894925 0.03348497778345429 0.0 0.7040400683662645 0.06375655183474613 0.0 1.3347386669941586 0.02414589482298837 0.0 1.2312504766278995 -0.024186530151299655 0.0 1.317815248427188 -0.08656913931250682 0.0 0.8248700310477756 0.06133102605007882 0.0 1.047763432908593 0.0789782874544639 0.0 1.1069642831549518 0.07234604890908872 0.0 1.266736646168391 0.09870371255420408 0.0 1.1284973645917955 0.09747127652284747 0.0 0.974801937929407 0.08131533988371978 0.0 0.6687240641173238 0.06737416012746096 0.0 1.2735540830647152 -0.0898284093988697 0.0 0.0 0.0 0.0 1.3079782255676435 0.05783786799122285 0.0 0.9168551188780977 0.08974952964867311 0.0 0.32524786968077257 0.0419834483097998 0.0 1.3159210826788905 0.07167654849123405 0.0 0.8993087305707071 0.08546707956373573 0.0 1.2706890792008878 0.09141030918029773 0.0 0.5980726142083271 0.06634614870814864 0.0 1.261707417849015 0.10383265779679786 0.0 0.5490105879868262 0.0684227355039302 0.0 0.2557659710035691 0.040387954578302486 0.0 1.1464918442474614 0.1018110091473803 0.0 0.6612964302114885 0.07494570740929869 0.0 1.0721618648048383 0.10366632136875152 0.0 0.844417743726643 0.09078719943772552 0.0 0.7753859649047358 0.08903114547040067 0.0 1.1956108292303396 0.08879317787931777 0.0 1.1160453569459965 0.09198087118194063 0.0 1.3062186136718081 0.08198721878901652 0.0 0.1556393453757961 0.028886011763832705 0.0 1.1519572276244086 0.079200082754171 0.0 1.216187490086459 0.10676407757008664 0.0 1.156976380678741 0.10775615889184029 0.0 1.2329850929811281 0.10723915470572958 0.0 1.2431969367993811 0.10840280818584441 0.0 1.291122019468351 0.08720472734996242 0.0 1.1831697094775793 0.06852297101659441 0.0 0.944358435950415 0.10167891469196644 0.0 1.2289039790525143 0.0926402399679706 0.0 1.27888820522447 0.09084120435614823 0.0 1.0449981564365436 0.06534913722478122 0.0 1.1617344121367827 0.10973344683433615 0.0 1.0783392430579304 0.10815217297176437 0.0 1.0591965858147994 0.10642142552715904 0.0 1.2319162458338366 0.09688084798941816 0.0 0.0 0.0 0.0 0.6445055116178598 -0.005611085142545597 0.0 1.0778212310227602 0.4342319686185594 0.0 1.166886258284478 0.42224388123157025 0.0 1.082264244069992 -0.42679693118593137 0.0 0.8656153501222003 -0.22703183679253128 0.0 0.97890585103518 -0.25552448425844565 0.0 0.8923701576168956 -0.08500134260597826 0.0 1.2228758574684757 -0.0522756568297208 0.0 1.0815192101993534 -0.0639819796436131 0.0 1.1987593183767766 -0.1044294408670663 0.0 1.265194769739558 -0.08453714765943651 0.0 1.315357003409585 -0.053687405865529024 0.0 -0.0831086319374014 -0.002636990442062104 0.0 -0.05035507323694298 0.007594963014725449 0.0 0.0007118700618952057 0.009948224080737934 0.0 0.0006588700401493324 0.011970542340309765 0.0 0.14666718714907756 0.026767577250740218 0.0 -0.05706718141384317 0.008129459349655888 0.0 0.061181379527190737 0.02184861923813245 0.0 0.21677298304125972 0.03708616667709123 0.0 0.08487047293777857 0.03814675427261077 0.0 -0.036057567757522495 0.014973639290395701 0.0 1.0348207616450589 0.16077941568587073 0.0 -0.07021473641550866 0.004474649474133944 0.0 1.254953336640037 -0.1003654620637582 0.0 1.1421752686673843 -0.09798932478569071 0.0 0.9509768176773032 -0.09218776182355623 0.0 1.1044373830788417 -0.10183974796887309 0.0 1.240226396873722 -0.1063869503758979 0.0 0.9136893484560301 -0.09501449489823455 0.0 1.2476814253436024 -0.10650753702975872 0.0 1.0785644518037978 -0.1045772807326298 0.0 1.1336510863209606 -0.10457743215997377 0.0 0.8648979199469934 -0.09439906992709562 0.0 0.9082747197532046 -0.0968176027383612 0.0 0.6273148580769511 -0.07713722839613764 0.0 1.105280053469994 -0.10715696617175414 0.0 1.2340928900180577 -0.10627089385582797 0.0 1.0701223144956469 -0.10502133219922159 0.0 1.1683290353488165 -0.08583718167397442 0.0 1.1940522900298336 -0.10839830381739896 0.0 0.683789304337221 -0.08122980350799867 0.0 1.1421957933039752 -0.10567081252577444 0.0 0.9407841786766628 -0.09835378374884357 0.0 0.639