<?xml version="1.0"?>
<VTKFile type="UnstructuredGrid"  version="0.1"  >
<UnstructuredGrid>
<Piece  NumberOfPoints="1289" NumberOfCells="2413">
<Points>
<DataArray  type="Float64"  NumberOfComponents="3"  format="ascii">0 0 0  0 0.41 0  2.2 0.41 0  2.2 0 0  0.1 0.1 0  0.1 0.3 0  0.8 0.3 0  0.8 0.1 0  0.25 0.2 0  0.248976 0.210065 0  0.245948 0.219718 0  0.241038 0.228563 0  0.234448 0.23624 0  0.226448 0.242432 0  0.217365 0.246888 0  0.207571 0.249423 0  0.197468 0.249936 0  0.187467 0.248404 0  0.17798 0.24489 0  0.169395 0.239539 0  0.162062 0.232569 0  0.156283 0.224265 0  0.152293 0.214968 0  0.150257 0.205058 0  0.150257 0.194942 0  0.152293 0.185032 0  0.156283 0.175735 0  0.162062 0.167431 0  0.169395 0.160461 0  0.17798 0.15511 0  0.187467 0.151596 0  0.197468 0.150064 0  0.207571 0.150577 0  0.217365 0.153112 0  0.226448 0.157568 0  0.234448 0.16376 0  0.241038 0.171437 0  0.245948 0.180282 0  0.248976 0.189935 0  1.1 0 0  1.1 0.41 0  0.1 0.2 0  0.45 0.1 0  0.45 0.3 0  0.55 0 0  0.275 0.1 0  0.275 0.3 0  0.275 0 0  0.55 0.41 0  0 0.205 0  0.825 0 0  0.825 0.41 0  0.275 0.41 0  0.1 0.15 0  0.1875 0.1 0  0.1 0.25 0  0.1875 0.3 0  0.132322 0.2 0  0.241426 0.253518 0  0.241426 0.146482 0  0.264574 0.17974 0  0.264574 0.22026 0  0.138434 0.187348 0  0.153372 0.150948 0  0.148413 0.164094 0  0.176495 0.136535 0  0.22768 0.143571 0  0.138434 0.212652 0  0.148413 0.235906 0  0.176495 0.263465 0  0.22768 0.256429 0  0.23125 0.3 0  0.24769 0.24094 0  0.23125 0.1 0  0.24769 0.15906 0  0.26253 0.193641 0  0.190482 0.137872 0  0.166753 0.146661 0  0.157737 0.244461 0  0.190482 0.262128 0  0.203107 0.261264 0  0.253635 0.22977 0  0.203107 0.138736 0  0.253635 0.17023 0  0.261028 0.206206 0  0.167707 0.251809 0  0.143629 0.224191 0  0.215302 0.2591 0  0.270465 0.245894 0  0.215302 0.1409 0  0.270465 0.154106 0  0.284052 0.202587 0  0.14375 0.3 0  0.209375 0.3 0  0.225966 0.278501 0  0.209375 0.1 0  0.225966 0.121499 0  0.211613 0.273759 0  0.211613 0.126241 0  0.143629 0.175809 0  0.1 0.175 0  0.133484 0.164832 0  0.144491 0.249539 0  0.1 0.225 0  0.133484 0.235168 0  0.3625 0.3 0  0.25691 0.253381 0  0.25691 0.146619 0  0.277205 0.188698 0  0.184724 0.275712 0  0.237372 0.268285 0  0.184724 0.124288 0  0.237372 0.131715 0  0.197578 0.273149 0  0.193656 0.286994 0  0.197578 0.126851 0  0.193656 0.113006 0  0.122953 0.187671 0  0.118362 0.153758 0  0.155372 0.258107 0  0.122953 0.212329 0  0.118362 0.246242 0  0.276394 0.27264 0  0.276394 0.12736 0  0.280965 0.170013 0  0.253125 0.3 0  0.14375 0.1 0  0.253125 0.1 0  0.269489 0.26014 0  0.269489 0.13986 0  0.303639 0.184297 0  0.165625 0.3 0  0.134742 0.273113 0  0.257831 0.274737 0  0.255279 0.128499 0  0.3625 0.1 0  0.165625 0.1 0  0.162031 0.132368 0  0.134955 0.126405 0  0.149334 0.125568 0  0.142936 0.139597 0  0.12695 0.140259 0  0.242514 0.285501 0  0.242514 0.114499 0  0.1 0.125 0  0.117483 0.12555 0  0.11154 0.139776 0  0.121875 0.1 0  0.109143 0.1125 0  0.126805 0.114 0  0.220313 0.29129 0  0.351562 0.287369 0  0.207222 0.2866 0  0.220312 0.10871 0  0.1375 0 0  0.20625 0 0  0.207222 0.1134 0  0.11722 0.17118 0  0.1 0.1625 0  0.0778409 0.16875 0  0.0862762 0.15625 0  0 0.15375 0  0 0.1025 0  0.11722 0.22882 0  0.1 0.2375 0  0 0.3075 0  0.0862762 0.23125 0  0.0598995 0.222547 0  0.0860223 0.2125 0  0.289584 0.181469 0  0.300267 0.16446 0  0.163832 0.269071 0  0.149597 0.273325 0  0.1 0.275 0  0.268498 0.285953 0  0.31875 0.3 0  0.294154 0.254672 0  0.296875 0.3 0  0.293558 0.271845 0  0.285095 0.286799 0  0.324298 0.264316 0  0.307866 0.263745 0  0.317093 0.234901 0  0.315485 0.281219 0  0.316547 0.250625 0  0.344693 0.243731 0  0.331592 0.251147 0  0.35129 0.270663 0  0.338689 0.263683 0  0.340625 0.3 0  0.249849 0.264383 0  0.265097 0.11422 0  0.284688 0.156136 0  0.242188 0.324017 0  0.0856613 0.2625 0  0.132812 0.0612217 0  0.264062 0.0612217 0  0.198437 0.07598340000000001 0  0.0860223 0.1375 0  0.0794526 0.191089 0  0.285228 0.140397 0  0.298655 0.148737 0  0.31875 0.1 0  0.327335 0.15374 0  0.296875 0.1 0  0.312289 0.155283 0  0.313348 0.135607 0  0.321802 0.173916 0  0.298433 0.134116 0  0.112124 0.2625 0  0.127526 0.259083 0  0.121875 0.3 0  0.0682687 0.241503 0  0.1 0.2875 0  0.117762 0.28125 0  0.107813 0.3 0  0.103906 0.313849 0  0.0778409 0.28125 0  0.1375 0.41 0  0.0862762 0.29375 0  0.08886860000000001 0.24375 0  0.307812 0.338778 0  0.307812 0.292227 0  0.33216 0.279164 0  0.387888 0.266414 0  0.264063 0.31948 0  0.110937 0.07598340000000001 0  0.242188 0.07598340000000001 0  0.319914 0.11839 0  0.340625 0.1 0  0.334448 0.133793 0  0.329687 0.108539 0  0.346259 0.118491 0  0.360334 0.173636 0  0.327539 0.205033 0  0.132812 0.288712 0  0.362436 0.278836 0  0.368105 0.259418 0  0.4125 0.41 0  0.329687 0.324017 0  0.329687 0.292306 0  0.285938 0.318952 0  0.417187 0.338778 0  0.324481 0.14148 0  0.351562 0.106771 0  0.40625 0.1 0  0.341028 0.168342 0  0.319221 0.190479 0  0.335292 0.184501 0  0.305563 0.20794 0  0.220313 0.31948 0  0.132812 0.332772 0  0.0865876 0.311259 0  0.0598995 0.302453 0  0.0906541 0.343255 0  0.353543 0.255837 0  0.36574 0.237633 0  0.405007 0.254279 0  0.275795 0.352123 0  0.4125 0 0  0.35493 0.137394 0  0.366563 0.120618 0  0.35917 0.205246 0  0.198438 0.318952 0  0.0626109 0.263892 0  0.40625 0.3 0  0.354809 0.155936 0  0.386512 0.146872 0  0.373101 0.159939 0  0.384375 0.1 0  0.343394 0.19929 0  0.350682 0.185683 0  0.368101 0.189748 0  0.344016 0.221511 0  0.391108 0.213329 0  0.376279 0.204783 0  0.398843 0.182768 0  0.375804 0.222746 0  0.390665 0.196958 0  0.394004 0.23518 0  0.359883 0.222828 0  0.419908 0.204359 0  0.404243 0.204783 0  0.412615 0.224526 0  0.20625 0.41 0  0.165625 0.325257 0  0.0347982 0.244954 0  0.379558 0.247154 0  0.34165 0.147603 0  0.372264 0.136992 0  0.388988 0.121989 0  0.373437 0.108554 0  0.351562 0.31948 0  0.391367 0.16527 0  0.399572 0.223324 0  0.452011 0.227371 0  0.40877 0.239392 0  0.431491 0.237337 0  0.421224 0.250459 0  0.449619 0.262098 0  0.418865 0.276779 0  0.437063 0.252274 0  0.415673 0.263227 0  0.430988 0.266772 0  0.402767 0.273419 0  0.452967 0.244883 0  0.428125 0.3 0  0.408502 0.286186 0  0.384375 0.3 0  0.392267 0.285807 0  0.465927 0.219339 0  0.43489 0.283846 0  0.376424 0.286289 0  0.625 0.3 0  0.473533 0.205186 0  0.461713 0.255517 0  0.5375 0.3 0  0.465725 0.235405 0  0.44631 0.201425 0  0.471875 0.3 0  0.494307 0.227729 0  0.459448 0.206736 0  0.462294 0.180792 0  0.478933 0.227536 0  0.486793 0.21381 0  0.486322 0.251373 0  0.50065 0.215318 0  0.54005 0.175389 0  0.474633 0.189893 0  0.512916 0.208697 0  0.49531 0.199967 0  0.475889 0.175275 0  0.625 0.1 0  0.459311 0.153933 0  0.513645 0.242704 0  0.392892 0.248539 0  0.374815 0.271913 0  0.365974 0.14871 0  0.395312 0.109184 0  0.417061 0.123981 0  0.483196 0.277003 0  0.381967 0.179632 0  0.429898 0.219374 0  0.433473 0.206165 0  0.43149 0.181038 0  0.444208 0.215487 0  0.472985 0.247309 0  0.49375 0.3 0  0.475579 0.262714 0  0.49916 0.274293 0  0.501175 0.184809 0  0.514164 0.225681 0  0.543648 0.214977 0  0.5341630000000001 0.23481 0  0.527396 0.216171 0  0.5375 0.1 0  0.534548 0.202315 0  0.561545 0.192513 0  0.5494289999999999 0.201221 0  0.570923 0.218346 0  0.412582 0.149833 0  0.489327 0.264745 0  0.502439 0.254775 0  0.462391 0.271166 0  0.496775 0.241732 0  0.5294410000000001 0.268606 0  0.482812 0.291099 0  0.46879 0.285038 0  0.452663 0.284065 0  0.51789 0.257882 0  0.53408 0.252026 0  0.560142 0.243543 0  0.545708 0.243474 0  0.547532 0.229019 0  0.55282 0.265323 0  0.398971 0.153424 0  0.400349 0.135684 0  0.410135 0.168145 0  0.428823 0.161323 0  0.415266 0.183779 0  0.329687 0.0810483 0  0.395312 0.0612217 0  0.373437 0.318952 0  0.439062 0.324017 0  0.561816 0.229354 0  0.585029 0.239287 0  0.431827 0.139854 0  0.446796 0.168929 0  0.351562 0.07598340000000001 0  0.395313 0.318944 0  0.54337 0.150762 0  0.460937 0.31948 0  0.418412 0.137529 0  0.428125 0.1 0  0.442783 0.152332 0  0.450742 0.134294 0  0.373437 0.0805201 0  0.384383 0.342558 0  0.482812 0.318952 0  0.429239 0.127457 0  0.444274 0.117405 0  0.426548 0.113815 0  0.49375 0.1 0  0.488954 0.113984 0  0.457973 0.121842 0  0.471621 0.137346 0  0.515625 0.325257 0  0.48125 0.41 0  0.417187 0.07598340000000001 0  0.496363 0.126778 0  0.479043 0.155715 0  0.439062 0.0805201 0  0.481795 0.126919 0  0.471875 0.1 0  0.489227 0.142159 0  0.515625 0.1 0  0.520062 0.147117 0  0.501244 0.161791 0  0.505431 0.112984 0  0.505344 0.14029 0  0.526563 0.119081 0  0.5181750000000001 0.131908 0  0.539868 0.136937 0  0.460937 0.108383 0  0.474242 0.114415 0  0.460937 0.0810483 0  0.487841 0.167168 0  0.526563 0.0612217 0  0.526563 0.106406 0  0.537619 0.112743 0  0.58125 0.1 0  0.559375 0.1 0  0.482812 0.08105569999999999 0  0.471883 0.0587655 0  0.570312 0.129396 0  0.548437 0.07598340000000001 0  0.504687 0.08105569999999999 0  0.49375 0.0470127 0  0.570312 0.112663 0  0.592798 0.12103 0  0.553986 0.12103 0  0.570312 0.0805201 0  0.48125 0 0  0.114787 0.2 0  0.160769 0.284765 0  0.175816 0.288361 0  0.162602 0.116048 0  0.154687 0.07598340000000001 0  0.176562 0.0805201 0  0.0598995 0.147547 0  0.307812 0.109924 0  0.291279 0.117157 0  0.278491 0.112989 0  0.285937 0.07598340000000001 0  0.307812 0.0805201 0  0.296928 0.196743 0  0.318141 0.218507 0  0.330208 0.227509 0  0.301397 0.225668 0  0.302706 0.241401 0  0.292574 0.21424 0  0.282762 0.230935 0  0.284351 0.244775 0  0.269553 0.23261 0  0.278572 0.217242 0  0.226924 0.342606 0  0.446928 0.185396 0  0.515625 0.3 0  0.504687 0.288879 0  0.515256 0.276534 0  0.529479 0.285328 0  0.58125 0.3 0  0.541969 0.272936 0  0.559375 0.3 0  0.556796 0.282529 0  0.543473 0.287206 0  0.581429 0.267774 0  0.566728 0.271171 0  0.570869 0.255585 0  0.577404 0.283865 0  0.603125 0.3 0  0.597531 0.28035 0  0.570312 0.338778 0  0.592188 0.292492 0  0.603513 0.256094 0  0.614063 0.286265 0  0.610329 0.27064 0  0.632708 0.251285 0  0.657223 0.261594 0  0.618789 0.257807 0  0.614188 0.22987 0  0.630935 0.265614 
[...]
<PointData  Vectors="v"> 
	<DataArray  type="Float64"  Name="v"  NumberOfComponents="3" format="ascii">
0.0 0.0 0.0 0.0 0.0 0.0 0.0 0.0 0.0 0.0 0.0 0.0 0.7962341051961626 -0.19598979117870438 0.0 0.8404040401227376 0.20776232404198455 0.0 1.1684564319910915 -0.059858866154677885 0.0 1.1367843746872117 0.05550749694094075 0.0 0.0 0.0 0.0 0.0 0.0 0.0 0.0 0.0 0.0 0.0 0.0 0.0 0.0008628494098318817 0.0008081316325694827 0.0 0.0005376308639924494 0.0007956396168586226 0.0 0.0005467939687653637 0.0009592398035464117 0.0 0.0 0.0 0.0 0.0 0.0 0.0 0.0 0.0 0.0 0.0 0.0 0.0 0.0 0.0 0.0 0.0 0.0 0.0 0.0 0.0 0.0 0.0 0.0 0.0 0.0 0.0 0.0 0.0 0.0 0.0 0.0 0.0 0.0 0.0 0.0 0.0 0.0 0.0 0.0 0.0 0.0 0.0 0.0 0.0 0.0 0.0 0.0 0.0 0.0 0.0 0.0 0.0 0.0 0.0 0.0004081835043219873 -0.0007105115627518234 0.0 5.771677329704992e-05 3.4998281418987275e-05 0.0 0.0008339426969871292 -0.0007700995637246848 0.0 0.0 0.0 0.0 0.0 0.0 0.0 0.0 0.0 0.0 0.0 0.0 0.0 0.0 0.0 0.0 0.7613281644439013 -0.001296521165974531 0.0 1.275587731648174 0.08291054986173184 0.0 1.266223500510572 -0.0774056269972591 0.0 0.0 0.0 0.0 1.3536354527566592 -0.132995274531814 0.0 1.3581893272443137 0.1548561365053358 0.0 0.0 0.0 0.0 0.0 0.0 0.0 1.0 0.0 0.0 0.0 0.0 0.0 0.0 0.0 0.0 0.0 0.0 0.0 0.8425968188209171 -0.23189799372884376 0.0 1.1514026703405655 -0.3443373222190283 0.0 0.8637784461631859 0.2292961061589549 0.0 1.1662767958809113 0.3540997878693001 0.0 0.42823484868237127 -0.003985667651228221 0.0 0.16521221496884422 0.062516292277925 0.0 0.16963509459603257 -0.06088523445971902 0.0 -0.027432202104690856 -0.038293869816318514 0.0 -0.025836394495428773 0.0362304306971104 0.0 0.33438032248754834 -0.27986023577605107 0.0 0.8578966811058842 -0.6734727444886344 0.0 0.6399983938029122 -0.6881650220925638 0.0 1.2061408989450597 -0.613306200465837 0.0 0.41571103890494393 -0.0690528934667684 0.0 0.33044408927222535 0.2687302248985645 0.0 0.6428247132653832 0.6693107416324348 0.0 1.1851418953968327 0.6153800215917493 0.0 0.4078251619232827 0.07158679126211966 0.0 1.3132429396868541 0.26092604666680247 0.0 0.32310675023318125 0.2516988419053017 0.0 1.3026433904394497 -0.2405215056744948 0.0 0.314218333770903 -0.2394023873119393 0.0 -0.03342672775850127 -0.016947053266898264 0.0 1.124865769067665 -0.398757490674199 0.0 1.0931992062584477 -0.7243479434665014 0.0 0.8520484354861282 0.7707344569067847 0.0 1.1313687225888938 0.3995517503413358 0.0 0.7593805271058823 0.18599929250842587 0.0 0.10872742818320169 0.05138902444097936 0.0 0.7693063686605223 -0.18192194831687103 0.0 0.11111050582101255 -0.04985751501425979 0.0 -0.029491706957319064 0.019029930483973785 0.0 1.0275022853505504 0.7188759388713262 0.0 0.44237530185136703 0.5291807686684041 0.0 0.45788140687149914 0.17768787846122638 0.0 0.2710189418514694 0.06897852640894038 0.0 0.4641972431752245 -0.1736981649307304 0.0 0.2767287655357244 -0.06462175396538254 0.0 -0.0749789070158801 0.002258603753999493 0.0 0.9654742481322756 0.3174115478821719 0.0 1.26055698645698 0.3132106757500707 0.0 1.2451155971690822 0.28887121992607384 0.0 1.2348372628848006 -0.3076692981583626 0.0 1.247815698948634 -0.2810444567463011 0.0 1.2201575827527518 0.3310453144182309 0.0 1.22610715067579 -0.3226672942474906 0.0 0.4428926294420188 -0.5445853829602223 0.0 0.8020179378542425 -0.13964012861204889 0.0 0.671512905000249 -0.41971238677137324 0.0 0.8773610759547735 0.5938369214202674 0.0 0.7993030892847258 0.1427949129052325 0.0 0.6764866606084202 0.42013896450959554 0.0 1.2927282133854805 -0.007184553121010755 0.0 0.29306198942091577 0.14421742719899164 0.0 0.2944811528830401 -0.13432859012536758 0.0 -0.054233604616225756 -0.012946229743372934 0.0 1.265060398841257 0.4718257353852937 0.0 0.7686978842780746 0.12090858351099752 0.0 1.2611142246998355 -0.47329921526582813 0.0 0.7890843958039309 -0.11556231191709983 0.0 1.2755917201353535 0.4180789595605954 0.0 1.2539969190424745 0.4011454642451665 0.0 1.271563336086069 -0.4142523512375658 0.0 1.2446943407442868 -0.38112977564687733 0.0 0.5835283723427576 -0.16053960530289496 0.0 0.7964356080713948 -0.3318186193519818 0.0 1.0104250536870583 0.6037979442241639 0.0 0.5917478566226856 0.1505968913793126 0.0 0.8125570039239327 0.3316966677118265 0.0 0.745845894454676 0.08080970887375749 0.0 0.7825386883300962 -0.07302977813415969 0.0 0.05215875248678015 -0.022096890664549847 0.0 1.3634683269768317 0.20747894571802794 0.0 0.9298234798464465 -0.3222317727333967 0.0 1.3445626664779962 -0.19004518873119908 0.0 0.40912836744663017 0.09077315706110964 0.0 0.42692520722356736 -0.07821563317262285 0.0 -0.05447409304975485 -0.00820323923145362 0.0 1.0573568791676982 0.35400905195555005 0.0 0.9431549019909161 0.39147273782801795 0.0 0.9222093536772044 0.11237018156457788 0.0 0.8242251095281207 -0.08690771637614564 0.0 1.306832033796805 0.016642608543442648 0.0 1.0275102366231752 -0.34519933652974905 0.0 1.0744866603780034 -0.5703324771569097 0.0 0.9301325252647248 -0.3894011713293509 0.0 0.9974650929770413 -0.43865646665907054 0.0 0.9329298645922466 -0.5428353408492776 0.0 0.8655318284100971 -0.40650695987439783 0.0 1.2733960383148963 0.23291655487307245 0.0 1.2715015270884222 -0.2195938207103594 0.0 0.8526566242973743 -0.23563679728886525 0.0 0.8790506153940062 -0.30995902332316627 0.0 0.8528960688677646 -0.29905217430948594 0.0 0.8514098678742312 -0.2564054981021788 0.0 0.8542123593991774 -0.2527850180736484 0.0 0.8962737873757799 -0.3194716324011308 0.0 1.3292363919272454 0.3156284557708124 0.0 1.0845296927021522 -0.002424446078955565 0.0 1.3145896513695379 0.3623841839168665 0.0 1.321342581519825 -0.2960695932988454 0.0 0.0 0.0 0.0 0.0 0.0 0.0 1.2994314229712414 -0.3494795406342962 0.0 0.7142443576664934 -0.26732575312823204 0.0 0.8203921768517168 -0.2107721707049292 0.0 0.8711716740654923 -0.11076141482650356 0.0 0.8624414335359376 -0.16377373217833388 0.0 0.9375 0.0 0.0 0.7500000000000001 0.0 0.0 0.7224715452081432 0.2652989819047625 0.0 0.8240357797658133 0.20014053077335842 0.0 0.7499999999999999 0.0 0.0 0.8697157962609265 0.1278190057852526 0.0 0.928712045094543 0.04283288935026743 0.0 0.8481111446616743 0.04506317545171727 0.0 -0.03480600658498911 -0.011629746023835057 0.0 0.09132776880284632 -0.017617883799099638 0.0 1.1150119894490258 0.5547831011455273 0.0 1.019010405574415 0.47315063324151313 0.0 0.8809704984335197 0.2454738899705233 0.0 1.200072908010809 0.13905831732070884 0.0 1.328843491366071 0.05982601862875508 0.0 0.35174755431463417 0.037966294732013205 0.0 1.3561426336204327 0.10289367380054586 0.0 0.7138767941878148 0.05372902702396354 0.0 1.1711481864294178 0.1002276535775087 0.0 0.5144448495946248 0.015819168201421034 0.0 0.49606015033842576 0.030016523742375796 0.0 0.0696741067338671 0.013401807717793842 0.0 0.9566152118597238 0.034522957478655414 0.0 0.25691685440476386 0.02214229148394406 0.0 0.16312638203565802 0.008507379272984414 0.0 0.26746210883871735 0.014609796285073078 0.0 0.6665293098041142 -0.004820430138450005 0.0 0.4981952482052102 0.006991715966840663 0.0 1.3157362025708284 0.019319126901137424 0.0 0.5424559700884637 0.06222041328932309 0.0 1.230207814223083 -0.14200021103873744 0.0 0.2017884383176739 -0.03757852879727465 0.0 1.205802178011223 0.17357173284208974 0.0 0.8828229998117545 0.179742019739585 0.0 0.7011223422834444 -0.16795723538626753 0.0 1.1155656944083983 -0.09422141405023694 0.0 1.038544040888901 -0.22376136971307026 0.0 0.8637514776109648 -0.18265628294275457 0.0 0.8754191847971781 -0.02559917548593218 0.0 0.439271681390971 -0.04805216957384835 0.0 0.2902338946399558 -0.03307262416062012 0.0 1.3289626390708251 -0.041898277621354466 0.0 0.20834771508159103 -0.01353435221743734 0.0 1.3554358504294346 -0.08636031304304433 0.0 0.19131610545474195 -0.019107289704962498 0.0 0.535448802321134 -0.015690397149433436 0.0 -0.0015840897475425792 -0.011314042605203842 0.0 0.5721300260048846 -0.03143890779450653 0.0 0.8788899257557934 0.2971577034008043 0.0 0.8795583313302756 0.41077390951566034 0.0 0.8850925981519073 0.2703388052980433 0.0 0.9122187823242482 0.10984846530146096 0.0 0.8651779259523821 0.2232976148412671 0.0 0.9047263758802642 0.30372289508002526 0.0 0.8572367937681542 0.23352427788636615 0.0 0.8020263659513582 0.1833841959992815 0.0 0.8670544935112113 0.16153178821628475 0.0 0.0 0.0 0.0 0.8415179812357405 0.17669632760426804 0.0 0.8706548947173746 0.171024278436041 0.0 1.2131347068797824 0.04976850437408864 0.0 1.2375777644386758 0.064965259512824 0.0 0.8901773054334307 0.013224279580303934 0.0 0.5938987190777429 -0.0259650371039016 0.0 1.2798783991060125 0.14709855522611426 0.0 0.7176175234246713 -0.1737270554358317 0.0 1.178001915343698 -0.16455039158480222 0.0 0.9986147816385106 -0.019807253159950154 0.0 1.3235859361399775 -0.007730750254808105 0.0 0.5853795186331567 -0.0001504374662487287 0.0 1.2204544898494694 -0.0126080221323979 0.0 0.9834582263547497 0.009208035361544077 0.0 -0.0045792565919506615 -0.007125975011712618 0.0 -0.0961355567629508 0.0010423129102452066 0.0 0.9448564923118384 0.3412323217984685 0.0 0.8777164647900946 -0.018420835897047332 0.0 0.4273183647703507 -0.008177320820905375 0.0 0.0 0.0 0.0 1.3286659137989092 0.037507128253122524 0.0 1.2125863527794736 0.024957119400241614 0.0 1.3172521081165396 0.11460237257115048 0.0 1.2524345869091336 -0.0443378616691794 0.0 0.4133878076018328 -0.013814374764113312 0.0 1.228334125541705 0.010500493512575728 0.0 1.2912033238043665 0.056890258759943566 0.0 0.040971324031562464 -0.009921079183048994 0.0 -0.08245466462859279 -0.005266072458883689 0.0 -0.06765903845394312 -0.007601984836861972 0.0 -0.08112034744038106 0.0029240088608960993 0.0 1.185810332001098 0.2197303583733675 0.0 0.7774482406526213 0.19847679149839087 0.0 0.7779135830198513 0.15423006475592918 0.0 0.7857368272693828 0.10690535279879325 0.0 0.6205735403855207 0.11098002162507016 0.0 0.352753899288367 0.0014340834676579205 0.0 0.09307607054027384 0.0038441356549910955 0.0 0.36450869325764546 -0.02062161048237605 0.0 1.0719754683494036 0.07673549343370009 0.0 0.0 0.0 0.0 0.5197638311644529 0.011369256253748801 0.0 0.9318646026927078 0.029194864465794577 0.0 -0.1094644122531496 0.00048087099277614227 0.0 1.097010748955274 0.26703432849819175 0.0 0.9003331124783311 0.11239325414225845 0.0 1.2803098247763294 -0.04953400840150121 0.0 0.18662022606189402 -0.0037548933287375303 0.0 0.35871447066477796 0.017755611012971115 0.0 0.14296934160559988 5.702316215591163e-05 0.0 1.3029797969129135 0.03926642189275236 0.0 -0.10613376744675877 -0.001701583228859121 0.0 -0.0775455153309356 -0.006656960562241522 0.0 -0.09782566016553199 -0.004682422021479621 0.0 -0.04367008568572891 0.00693461254908323 0.0 -0.09573488519473075 0.0009530821541595757 0.0 -0.11597676160946263 -6.775905913781987e-05 0.0 -0.06694350580938921 -0.002153475451230572 0.0 -0.041598404852569035 0.0033665865158798865 0.0 -0.1198037131098945 -0.00215450532465292 0.0 0.07494058137136485 -0.0020601562679595604 0.0 -0.03900737835682435 0.0055987192711741745 0.0 -0.12327802026488136 -0.0012175390731257764 0.0 -0.12193188568849701 -0.000847496850557433 0.0 -0.02408607289609097 -0.0025130879725509445 0.0 0.0 0.0 0.0 0.9464152648210733 0.25545920209453526 0.0 0.9513521734860372 0.04010069867722759 0.0 0.22450609277998768 -0.004446449084620529 0.0 0.30847820376647667 -0.0045665537228108425 0.0 0.5442238678394525 0.02089566181299666 0.0 0.9122986059759559 0.04299096769909013 0.0 1.1920776206775718 0.03456054957370587 0.0 1.3537123801666358 0.014655939845065948 0.0 0.0879545343565022 0.0021256820986071 0.0 -0.03619790304246335 7.260959314150808e-06 0.0 0.022208615015430946 -0.011719908945115402 0.0 0.13499485259987465 -0.008813544345782375 0.0 0.12511538659076535 -0.013892863164783891 0.0 0.3150383301614782 -0.023350386319525573 0.0 0.5747877503985996 -0.0510154090916818 0.0 0.8592359205696354 -0.05251598061044435 0.0 0.3662714821833741 -0.03185517240585219 0.0 0.5548443089124213 -0.035930424654849226 0.0 0.6501449295520129 -0.04786832752281724 0.0 0.7699106747870064 -0.04114789087081314 0.0 0.25859908138579657 -0.028331351030824927 0.0 1.2727840554437542 -0.06467330521915768 0.0 1.0584154570141615 -0.051902128706606834 0.0 1.2865034356003866 -0.029122654886597907 0.0 1.048897938713132 -0.03978222789742203 0.0 -0.04326827187333042 -0.008849865029542455 0.0 1.0269371267625473 -0.06708650429024697 0.0 1.0600501792049577 -0.03013082194566722 0.0 1.226778513035055 -0.10328710441854813 0.0 -0.10914541115711587 -0.0022153229287150255 0.0 0.4598746239848044 -0.04574416959581431 0.0 1.251277488908265 -0.10543565899517823 0.0 0.13102329619770978 -0.021811467797172013 0.0 -0.12230213283970164 -0.0009100351322740857 0.0 1.2614818365936469 -0.08738845527523811 0.0 0.06258454424913036 -0.021026390301488534 0.0 -0.11184690579474739 -0.002571280156859175 0.0 -0.02650575720551022 0.009972472166656064 0.0 0.04510975390950039 -0.01769472966929254 0.0 -0.06815429921595706 -0.007979477980272095 0.0 0.417962375974389 -0.04899374533691834 0.0 -0.04814376042682568 -0.010665815588833666 0.0 0.11208010197851379 0.03039641486801442 0.0 -0.08266524200540137 0.005689659907165729 0.0 -0.07330814944633901 -0.00617510341601554 0.0 -0.09988155414463137 0.0007221233879165743 0.0 0.039215197556390476 0.0171806567275485 0.0 1.2156567666485103 0.10272011982890183 0.0 0.32742095374945684 0.03738413019824638 0.0 0.30382753585273303 -0.044667999751810794 0.0 0.25536472705708846 -0.010240689991666581 0.0 0.7078904790168093 -0.020666199217911206 0.0 0.3060203867919582 0.005522120085102844 0.0 1.1766413525921968 0.05297600785711607 0.0 0.8888687695032931 0.06098526761500172 0.0 0.9288726180531495 -0.08279348940831961 0.0 -0.04789685541518016 -0.004297456829371597 0.0 -0.05919297699703543 -0.0037908759903277725 0.0 -0.11933800378051374 -0.0015991520788241336 0.0 -0.04591378273295164 0.003978574465160153 0.0 -0.07994237007133194 -0.0043012113925563235 0.0 0.32528114760381704 -0.0386060187057796 0.0 1.2581708987278728 -0.09348866011983553 0.0 0.6256208299313881 -0.06166554282327666 0.0 0.8932695462551976 -0.08583948660445966 0.0 -0.02920448101596099 0.012907079814731062 0.0 0.060173538164611795 -0.02281274238638927 0.0 -0.008166215062969762 -0.01470315545094803 0.0 0.20755294768514163 -0.038469320099965114 0.0 -0.017081303167430267 -0.014377585825218201 0.0 1.2531486946665455 0.1061971150611738 0.0 -0.06732297147697439 -0.0008302353415935361 0.0 -0.015274467912753732 0.011089693397149046 0.0 -0.051967202385754495 0.00039437410398722634 0.0 0.05377418394920445 -0.0213132928364902 0.0 0.33704012474958917 0.02455657004088908 0.0 0.6875376393615515 -0.07006981216878991 0.0 0.5066787450729421 -0.05976122407744711 0.0 0.786539686475715 -0.06835336045759716 0.0 0.26388913414322895 -0.038363152997192874 0.0 0.8186733757083722 -0.08751548366808548 0.0 1.1662832302255801 -0.09102432006963398 0.0 1.0672759126578235 -0.0836479487881549 0.0 1.0405235526961902 -0.07516973985891831 0.0 0.5913774886206662 -0.06937703068431607 0.0 0.5027962084155547 -0.06434905294000577 0.0 0.3899734182812385 -0.05711984181232628 0.0 0.36535846133423083 -0.05385551708748318 0.0 0.14342197001879486 -0.03277391285224213 0.0 0.7862082014892102 -0.088076281548836 0.0 0.2594294803080224 0.014638102491607581 0.0 0.6066339565341349 0.03780781338581181 0.0 0.06673930993206478 0.0059039983587575754 0.0 0.17127560892509064 0.01772059359121596 0.0 -0.07058182686065596 0.0001685355400126545 0.0 1.332742824305978 -0.02441541615345521 0.0 1.2179319047933237 0.04114415975323901 0.0 1.3551646118729095 -0.012047614512817162 0.0 1.326729523262616 -0.06315754996043788 0.0 0.16823339496306766 -0.035590309823692934 0.0 0.35624335304372484 -0.05429574678552309 0.0 0.5585232567929319 0.046749561595066505 0.0 0.08690475552012862 0.015464819594083242 0.0 1.3082347819579319 0.004072124320102247 0.0 1.348238525138012 -0.03295282937662404 0.0 0.5172365513559328 0.06863727039355827 0.0 1.3271359996518435 -0.07663627115726601 0.0 0.5884384199672348 0.04324488894124616 0.0 1.2824374481903689 0.07195584290587066 0.0 0.33248196626829457 0.033536441487100235 0.0 0.7038891723328468 0.06376657642435052 0.0 1.3347352447348615 0.024153375717355374 0.0 1.2312586789466455 -0.02418985865532021 0.0 1.3178266473384663 -0.08664848818230933 0.0 0.8247714520603657 0.06135880968801735 0.0 1.0476676421207316 0.07897381985381303 0.0 1.1068968403277843 0.07235888884033848 0.0 1.266683696992897 0.09860212122265598 0.0 1.1283825392073419 0.09736673857592094 0.0 0.9746749329563076 0.08128888738950565 0.0 0.6685298756095877 0.06733437916280126 0.0 1.2735000129583782 -0.08991146267340461 0.0 0.0 0.0 0.0 1.3079622491571001 0.05783404185675806 0.0 0.9166802762621706 0.08962415038795944 0.0 0.32504410626917224 0.04193676457911152 0.0 1.3158935857851304 0.07165414465691172 0.0 0.8991367520670343 0.08538406580199694 0.0 1.2706233103937568 0.09134568369892263 0.0 0.5978534033136494 0.0662513423156425 0.0 1.261693637429116 0.10370499847640288 0.0 0.5488060466809069 0.06820047092349649 0.0 0.2555739073936705 0.04023440780558112 0.0 1.1463946245612258 0.10167195565502127 0.0 0.6610779853260575 0.0747899683410354 0.0 1.0720666224531932 0.10348138775879698 0.0 0.8442341732255699 0.09059073051137438 0.0 0.7752374631074408 0.0887767011396374 0.0 1.1955215738305567 0.08874889866873843 0.0 1.1159288528286102 0.09191318246652745 0.0 1.306192835292203 0.08194067789456838 0.0 0.15546687077790858 0.028803556863627598 0.0 1.152032576303576 0.07913947936671677 0.0 1.2161673686650185 0.10660980812810048 0.0 1.156956270573217 0.10758246000848914 0.0 1.2331736114386593 0.10719629282701404 0.0 1.2433081141133489 0.10829788186476834 0.0 1.2911148382680713 0.08713554603461404 0.0 1.1831723381989556 0.06848210810655779 0.0 0.9443890197549625 0.10146090156850864 0.0 1.2290183174534783 0.09257712737439966 0.0 1.27890292915737 0.09075617811546038 0.0 1.0450527485287116 0.06530421791411581 0.0 1.1618464570709792 0.10960629687265026 0.0 1.0785379946102502 0.10805880584569055 0.0 1.059185348961182 0.10622184689567928 0.0 1.2320718246628897 0.0968574709125411 0.0 0.0 0.0 0.0 0.644505492058474 -0.005599494023883983 0.0 1.0778278740225202 0.43424157252395396 0.0 1.1668947032197476 0.42225395189203246 0.0 1.082256192322502 -0.4267881411999894 0.0 0.8656086963568648 -0.2270277056448887 0.0 0.978896555038486 -0.2555205550029503 0.0 0.8923693975441647 -0.0849969958454256 0.0 1.2228543974686596 -0.05228283681205898 0.0 1.0814766989460183 -0.0639920694477507 0.0 1.1987452715155016 -0.10444208357763009 0.0 1.265193303643726 -0.08454308375895508 0.0 1.3153647811735927 -0.053694285413784196 0.0 -0.08308420665231542 -0.002617777950822782 0.0 -0.05035914683728636 0.007635081152825617 0.0 0.0006938738958031459 0.009992605298018008 0.0 0.0006396674374979922 0.012005239479813985 0.0 0.14658541321292004 0.02679315039030206 0.0 -0.057052398408213884 0.00815572260192099 0.0 0.061131258679812575 0.02186589782140746 0.0 0.2166543852143234 0.03708326285945918 0.0 0.08480355116657881 0.03813769276818356 0.0 -0.036046040044531914 0.01498557417867288 0.0 1.034830637630051 0.16077912417979723 0.0 -0.07029998632403035 0.004549342412597023 0.0 1.254975469496054 -0.10049567838741394 0.0 1.1422774820668746 -0.09813169627157585 0.0 0.9511246385375852 -0.09236362870114945 0.0 1.1045058335092528 -0.10201889576519099 0.0 1.2400393785126007 -0.10642780945641309 0.0 0.913780751298822 -0.09524075859023795 0.0 1.2475669091204977 -0.10660983884255405 0.0 1.07854618738159 -0.10475789689239623 0.0 1.1336612396327037 -0.10474910543236421 0.0 0.8647917674670702 -0.09461048347475558 0.0 0.9082533292464003 -0.09704386192369839 0.0 0.6272843090031389 -0.07745594632790664 0.0 1.1051537837484466 -0.10728931001054719 0.0 1.2338319281057808 -0.10622904317485954 0.0 1.0698862727505423 -0.105091346749682 0.0 1.1681870029018326 -0.08584009863054129 0.0 1.1938293115433012 -0.10842975928832975 0.0 0.6835052737305903 -0.08145215663921274 0.0 1.1418764033043398 -0.1056199351561389 0.0 0.940465876699397 -0.0984200622155512 0