<?xml version="1.0"?>
<VTKFile type="UnstructuredGrid"  version="0.1"  >
<UnstructuredGrid>
<Piece  NumberOfPoints="1289" NumberOfCells="2413">
<Points>
<DataArray  type="Float64"  NumberOfComponents="3"  format="ascii">0 0 0  0 0.41 0  2.2 0.41 0  2.2 0 0  0.1 0.1 0  0.1 0.3 0  0.8 0.3 0  0.8 0.1 0  0.25 0.2 0  0.248976 0.210065 0  0.245948 0.219718 0  0.241038 0.228563 0  0.234448 0.23624 0  0.226448 0.242432 0  0.217365 0.246888 0  0.207571 0.249423 0  0.197468 0.249936 0  0.187467 0.248404 0  0.17798 0.24489 0  0.169395 0.239539 0  0.162062 0.232569 0  0.156283 0.224265 0  0.152293 0.214968 0  0.150257 0.205058 0  0.150257 0.194942 0  0.152293 0.185032 0  0.156283 0.175735 0  0.162062 0.167431 0  0.169395 0.160461 0  0.17798 0.15511 0  0.187467 0.151596 0  0.197468 0.150064 0  0.207571 0.150577 0  0.217365 0.153112 0  0.226448 0.157568 0  0.234448 0.16376 0  0.241038 0.171437 0  0.245948 0.180282 0  0.248976 0.189935 0  1.1 0 0  1.1 0.41 0  0.1 0.2 0  0.45 0.1 0  0.45 0.3 0  0.55 0 0  0.275 0.1 0  0.275 0.3 0  0.275 0 0  0.55 0.41 0  0 0.205 0  0.825 0 0  0.825 0.41 0  0.275 0.41 0  0.1 0.15 0  0.1875 0.1 0  0.1 0.25 0  0.1875 0.3 0  0.132322 0.2 0  0.241426 0.253518 0  0.241426 0.146482 0  0.264574 0.17974 0  0.264574 0.22026 0  0.138434 0.187348 0  0.153372 0.150948 0  0.148413 0.164094 0  0.176495 0.136535 0  0.22768 0.143571 0  0.138434 0.212652 0  0.148413 0.235906 0  0.176495 0.263465 0  0.22768 0.256429 0  0.23125 0.3 0  0.24769 0.24094 0  0.23125 0.1 0  0.24769 0.15906 0  0.26253 0.193641 0  0.190482 0.137872 0  0.166753 0.146661 0  0.157737 0.244461 0  0.190482 0.262128 0  0.203107 0.261264 0  0.253635 0.22977 0  0.203107 0.138736 0  0.253635 0.17023 0  0.261028 0.206206 0  0.167707 0.251809 0  0.143629 0.224191 0  0.215302 0.2591 0  0.270465 0.245894 0  0.215302 0.1409 0  0.270465 0.154106 0  0.284052 0.202587 0  0.14375 0.3 0  0.209375 0.3 0  0.225966 0.278501 0  0.209375 0.1 0  0.225966 0.121499 0  0.211613 0.273759 0  0.211613 0.126241 0  0.143629 0.175809 0  0.1 0.175 0  0.133484 0.164832 0  0.144491 0.249539 0  0.1 0.225 0  0.133484 0.235168 0  0.3625 0.3 0  0.25691 0.253381 0  0.25691 0.146619 0  0.277205 0.188698 0  0.184724 0.275712 0  0.237372 0.268285 0  0.184724 0.124288 0  0.237372 0.131715 0  0.197578 0.273149 0  0.193656 0.286994 0  0.197578 0.126851 0  0.193656 0.113006 0  0.122953 0.187671 0  0.118362 0.153758 0  0.155372 0.258107 0  0.122953 0.212329 0  0.118362 0.246242 0  0.276394 0.27264 0  0.276394 0.12736 0  0.280965 0.170013 0  0.253125 0.3 0  0.14375 0.1 0  0.253125 0.1 0  0.269489 0.26014 0  0.269489 0.13986 0  0.303639 0.184297 0  0.165625 0.3 0  0.134742 0.273113 0  0.257831 0.274737 0  0.255279 0.128499 0  0.3625 0.1 0  0.165625 0.1 0  0.162031 0.132368 0  0.134955 0.126405 0  0.149334 0.125568 0  0.142936 0.139597 0  0.12695 0.140259 0  0.242514 0.285501 0  0.242514 0.114499 0  0.1 0.125 0  0.117483 0.12555 0  0.11154 0.139776 0  0.121875 0.1 0  0.109143 0.1125 0  0.126805 0.114 0  0.220313 0.29129 0  0.351562 0.287369 0  0.207222 0.2866 0  0.220312 0.10871 0  0.1375 0 0  0.20625 0 0  0.207222 0.1134 0  0.11722 0.17118 0  0.1 0.1625 0  0.0778409 0.16875 0  0.0862762 0.15625 0  0 0.15375 0  0 0.1025 0  0.11722 0.22882 0  0.1 0.2375 0  0 0.3075 0  0.0862762 0.23125 0  0.0598995 0.222547 0  0.0860223 0.2125 0  0.289584 0.181469 0  0.300267 0.16446 0  0.163832 0.269071 0  0.149597 0.273325 0  0.1 0.275 0  0.268498 0.285953 0  0.31875 0.3 0  0.294154 0.254672 0  0.296875 0.3 0  0.293558 0.271845 0  0.285095 0.286799 0  0.324298 0.264316 0  0.307866 0.263745 0  0.317093 0.234901 0  0.315485 0.281219 0  0.316547 0.250625 0  0.344693 0.243731 0  0.331592 0.251147 0  0.35129 0.270663 0  0.338689 0.263683 0  0.340625 0.3 0  0.249849 0.264383 0  0.265097 0.11422 0  0.284688 0.156136 0  0.242188 0.324017 0  0.0856613 0.2625 0  0.132812 0.0612217 0  0.264062 0.0612217 0  0.198437 0.07598340000000001 0  0.0860223 0.1375 0  0.0794526 0.191089 0  0.285228 0.140397 0  0.298655 0.148737 0  0.31875 0.1 0  0.327335 0.15374 0  0.296875 0.1 0  0.312289 0.155283 0  0.313348 0.135607 0  0.321802 0.173916 0  0.298433 0.134116 0  0.112124 0.2625 0  0.127526 0.259083 0  0.121875 0.3 0  0.0682687 0.241503 0  0.1 0.2875 0  0.117762 0.28125 0  0.107813 0.3 0  0.103906 0.313849 0  0.0778409 0.28125 0  0.1375 0.41 0  0.0862762 0.29375 0  0.08886860000000001 0.24375 0  0.307812 0.338778 0  0.307812 0.292227 0  0.33216 0.279164 0  0.387888 0.266414 0  0.264063 0.31948 0  0.110937 0.07598340000000001 0  0.242188 0.07598340000000001 0  0.319914 0.11839 0  0.340625 0.1 0  0.334448 0.133793 0  0.329687 0.108539 0  0.346259 0.118491 0  0.360334 0.173636 0  0.327539 0.205033 0  0.132812 0.288712 0  0.362436 0.278836 0  0.368105 0.259418 0  0.4125 0.41 0  0.329687 0.324017 0  0.329687 0.292306 0  0.285938 0.318952 0  0.417187 0.338778 0  0.324481 0.14148 0  0.351562 0.106771 0  0.40625 0.1 0  0.341028 0.168342 0  0.319221 0.190479 0  0.335292 0.184501 0  0.305563 0.20794 0  0.220313 0.31948 0  0.132812 0.332772 0  0.0865876 0.311259 0  0.0598995 0.302453 0  0.0906541 0.343255 0  0.353543 0.255837 0  0.36574 0.237633 0  0.405007 0.254279 0  0.275795 0.352123 0  0.4125 0 0  0.35493 0.137394 0  0.366563 0.120618 0  0.35917 0.205246 0  0.198438 0.318952 0  0.0626109 0.263892 0  0.40625 0.3 0  0.354809 0.155936 0  0.386512 0.146872 0  0.373101 0.159939 0  0.384375 0.1 0  0.343394 0.19929 0  0.350682 0.185683 0  0.368101 0.189748 0  0.344016 0.221511 0  0.391108 0.213329 0  0.376279 0.204783 0  0.398843 0.182768 0  0.375804 0.222746 0  0.390665 0.196958 0  0.394004 0.23518 0  0.359883 0.222828 0  0.419908 0.204359 0  0.404243 0.204783 0  0.412615 0.224526 0  0.20625 0.41 0  0.165625 0.325257 0  0.0347982 0.244954 0  0.379558 0.247154 0  0.34165 0.147603 0  0.372264 0.136992 0  0.388988 0.121989 0  0.373437 0.108554 0  0.351562 0.31948 0  0.391367 0.16527 0  0.399572 0.223324 0  0.452011 0.227371 0  0.40877 0.239392 0  0.431491 0.237337 0  0.421224 0.250459 0  0.449619 0.262098 0  0.418865 0.276779 0  0.437063 0.252274 0  0.415673 0.263227 0  0.430988 0.266772 0  0.402767 0.273419 0  0.452967 0.244883 0  0.428125 0.3 0  0.408502 0.286186 0  0.384375 0.3 0  0.392267 0.285807 0  0.465927 0.219339 0  0.43489 0.283846 0  0.376424 0.286289 0  0.625 0.3 0  0.473533 0.205186 0  0.461713 0.255517 0  0.5375 0.3 0  0.465725 0.235405 0  0.44631 0.201425 0  0.471875 0.3 0  0.494307 0.227729 0  0.459448 0.206736 0  0.462294 0.180792 0  0.478933 0.227536 0  0.486793 0.21381 0  0.486322 0.251373 0  0.50065 0.215318 0  0.54005 0.175389 0  0.474633 0.189893 0  0.512916 0.208697 0  0.49531 0.199967 0  0.475889 0.175275 0  0.625 0.1 0  0.459311 0.153933 0  0.513645 0.242704 0  0.392892 0.248539 0  0.374815 0.271913 0  0.365974 0.14871 0  0.395312 0.109184 0  0.417061 0.123981 0  0.483196 0.277003 0  0.381967 0.179632 0  0.429898 0.219374 0  0.433473 0.206165 0  0.43149 0.181038 0  0.444208 0.215487 0  0.472985 0.247309 0  0.49375 0.3 0  0.475579 0.262714 0  0.49916 0.274293 0  0.501175 0.184809 0  0.514164 0.225681 0  0.543648 0.214977 0  0.5341630000000001 0.23481 0  0.527396 0.216171 0  0.5375 0.1 0  0.534548 0.202315 0  0.561545 0.192513 0  0.5494289999999999 0.201221 0  0.570923 0.218346 0  0.412582 0.149833 0  0.489327 0.264745 0  0.502439 0.254775 0  0.462391 0.271166 0  0.496775 0.241732 0  0.5294410000000001 0.268606 0  0.482812 0.291099 0  0.46879 0.285038 0  0.452663 0.284065 0  0.51789 0.257882 0  0.53408 0.252026 0  0.560142 0.243543 0  0.545708 0.243474 0  0.547532 0.229019 0  0.55282 0.265323 0  0.398971 0.153424 0  0.400349 0.135684 0  0.410135 0.168145 0  0.428823 0.161323 0  0.415266 0.183779 0  0.329687 0.0810483 0  0.395312 0.0612217 0  0.373437 0.318952 0  0.439062 0.324017 0  0.561816 0.229354 0  0.585029 0.239287 0  0.431827 0.139854 0  0.446796 0.168929 0  0.351562 0.07598340000000001 0  0.395313 0.318944 0  0.54337 0.150762 0  0.460937 0.31948 0  0.418412 0.137529 0  0.428125 0.1 0  0.442783 0.152332 0  0.450742 0.134294 0  0.373437 0.0805201 0  0.384383 0.342558 0  0.482812 0.318952 0  0.429239 0.127457 0  0.444274 0.117405 0  0.426548 0.113815 0  0.49375 0.1 0  0.488954 0.113984 0  0.457973 0.121842 0  0.471621 0.137346 0  0.515625 0.325257 0  0.48125 0.41 0  0.417187 0.07598340000000001 0  0.496363 0.126778 0  0.479043 0.155715 0  0.439062 0.0805201 0  0.481795 0.126919 0  0.471875 0.1 0  0.489227 0.142159 0  0.515625 0.1 0  0.520062 0.147117 0  0.501244 0.161791 0  0.505431 0.112984 0  0.505344 0.14029 0  0.526563 0.119081 0  0.5181750000000001 0.131908 0  0.539868 0.136937 0  0.460937 0.108383 0  0.474242 0.114415 0  0.460937 0.0810483 0  0.487841 0.167168 0  0.526563 0.0612217 0  0.526563 0.106406 0  0.537619 0.112743 0  0.58125 0.1 0  0.559375 0.1 0  0.482812 0.08105569999999999 0  0.471883 0.0587655 0  0.570312 0.129396 0  0.548437 0.07598340000000001 0  0.504687 0.08105569999999999 0  0.49375 0.0470127 0  0.570312 0.112663 0  0.592798 0.12103 0  0.553986 0.12103 0  0.570312 0.0805201 0  0.48125 0 0  0.114787 0.2 0  0.160769 0.284765 0  0.175816 0.288361 0  0.162602 0.116048 0  0.154687 0.07598340000000001 0  0.176562 0.0805201 0  0.0598995 0.147547 0  0.307812 0.109924 0  0.291279 0.117157 0  0.278491 0.112989 0  0.285937 0.07598340000000001 0  0.307812 0.0805201 0  0.296928 0.196743 0  0.318141 0.218507 0  0.330208 0.227509 0  0.301397 0.225668 0  0.302706 0.241401 0  0.292574 0.21424 0  0.282762 0.230935 0  0.284351 0.244775 0  0.269553 0.23261 0  0.278572 0.217242 0  0.226924 0.342606 0  0.446928 0.185396 0  0.515625 0.3 0  0.504687 0.288879 0  0.515256 0.276534 0  0.529479 0.285328 0  0.58125 0.3 0  0.541969 0.272936 0  0.559375 0.3 0  0.556796 0.282529 0  0.543473 0.287206 0  0.581429 0.267774 0  0.566728 0.271171 0  0.570869 0.255585 0  0.577404 0.283865 0  0.603125 0.3 0  0.597531 0.28035 0  0.570312 0.338778 0  0.592188 0.292492 0  0.603513 0.256094 0  0.614063 0.286265 0  0.610329 0.27064 0  0.632708 0.251285 0  0.657223 0.261594 0  0.618789 0.257807 0  0.614188 0.22987 0  0.630935 0.265614 
[...]
<PointData  Vectors="v"> 
	<DataArray  type="Float64"  Name="v"  NumberOfComponents="3" format="ascii">
0.0 0.0 0.0 0.0 0.0 0.0 0.0 0.0 0.0 0.0 0.0 0.0 0.796234732715437 -0.1959895036902336 0.0 0.8404033701070337 0.20776274834557507 0.0 1.1683195526834074 -0.05957048353239067 0.0 1.1368726996146594 0.055764576274385975 0.0 0.0 0.0 0.0 0.0 0.0 0.0 0.0 0.0 0.0 0.0 0.0 0.0 0.0008582391586641714 0.0007999040661642703 0.0 0.0003337812763651562 0.0004425373778834733 0.0 0.0004877236063567962 0.0008569829427159715 0.0 0.0 0.0 0.0 0.0 0.0 0.0 0.0 0.0 0.0 0.0 0.0 0.0 0.0 0.0 0.0 0.0 0.0 0.0 0.0 0.0 0.0 0.0 0.0 0.0 0.0 0.0 0.0 0.0 0.0 0.0 0.0 0.0 0.0 0.0 0.0 0.0 0.0 0.0 0.0 0.0 0.0 0.0 0.0 0.0 0.0 0.0 0.0 0.0 0.0 0.0 0.0 0.0 0.0 0.0 0.00046480131522985235 -0.0008085245283285446 0.0 0.00025312049015813534 -0.00030346530768966053 0.0 0.0008383863096186452 -0.000778009041884877 0.0 0.0 0.0 0.0 0.0 0.0 0.0 0.0 0.0 0.0 0.0 0.0 0.0 0.0 0.0 0.0 0.7613281698605784 -0.001297038350881896 0.0 1.275523181649758 0.0828947279244023 0.0 1.2662933643297531 -0.07742375712808047 0.0 0.0 0.0 0.0 1.3536331753184354 -0.1329938976343422 0.0 1.3581892787792316 0.1548655392889457 0.0 0.0 0.0 0.0 0.0 0.0 0.0 1.0 0.0 0.0 0.0 0.0 0.0 0.0 0.0 0.0 0.0 0.0 0.0 0.842597413974943 -0.23189827294987606 0.0 1.1514016320888767 -0.344329036548449 0.0 0.8637776814899514 0.22929588744793966 0.0 1.1662776022083177 0.35410888763316917 0.0 0.42823488256501496 -0.00398480016325659 0.0 0.1650308532417106 0.062453307098680313 0.0 0.16981180741935542 -0.060952405029511506 0.0 -0.027410875847890096 -0.03829308000936585 0.0 -0.025853364049080747 0.036227527492853566 0.0 0.3343803857924375 -0.2798591207086611 0.0 0.8578981668523153 -0.6734706325368064 0.0 0.6399992716988285 -0.6881642062911629 0.0 1.2061461328179213 -0.6133023501640457 0.0 0.41555016092703345 -0.06910527231017927 0.0 0.33044398893931554 0.2687312897854017 0.0 0.6428236857214644 0.6693116680669805 0.0 1.1851361702854328 0.615383894354935 0.0 0.4079868909540058 0.0715283174956014 0.0 1.3132484733974052 0.26092696828344625 0.0 0.3232088142438326 0.25184119681874884 0.0 1.3026371770156016 -0.2405219882753261 0.0 0.31412583950875766 -0.23927000808006568 0.0 -0.033421109300950914 -0.016947817693533873 0.0 1.1248843031152196 -0.3987567333455371 0.0 1.0932041894087967 -0.724347313340464 0.0 0.8520457967812723 0.770734611989058 0.0 1.1313490109160518 0.39955254180549965 0.0 0.7593521142626102 0.18600711118248636 0.0 0.10872938545559713 0.05140879348826809 0.0 0.7693328436806267 -0.18191474486138354 0.0 0.11111127612096758 -0.049831711742832685 0.0 -0.029494173151482454 0.01902743137948836 0.0 1.027496741192388 0.7188753813425749 0.0 0.4423749232532567 0.529181623700286 0.0 0.45793899572813285 0.1777956721154339 0.0 0.27103610009061363 0.06898740059156827 0.0 0.46414234558108663 -0.1735943270333473 0.0 0.27670345674669544 -0.06461066502880798 0.0 -0.07497878270986011 0.00226719294716308 0.0 0.9654733363616718 0.3174151088494226 0.0 1.2605612712614958 0.3132235196015239 0.0 1.245114384676019 0.28888558077731713 0.0 1.2348325012064105 -0.307657661208071 0.0 1.2478138035896542 -0.28103184746024445 0.0 1.2201441827750696 0.33106254202902247 0.0 1.2261189578312566 -0.32265076036342993 0.0 0.44289293440059274 -0.54458452845827 0.0 0.8020181954521999 -0.1396405900775863 0.0 0.6715135149955144 -0.41971099612956864 0.0 0.8773591595170736 0.593838287350725 0.0 0.7993027346661553 0.1427944273865846 0.0 0.6764857539154552 0.42014011137646085 0.0 1.2927556604353985 -0.007179176661831128 0.0 0.29304028770167295 0.1442726627993791 0.0 0.2945094584419639 -0.13428289667799073 0.0 -0.05422449771248024 -0.012943907166764619 0.0 1.2650549310052455 0.47183600956910515 0.0 0.7687131668166894 0.12090036240315419 0.0 1.261118643782716 -0.4732897496764844 0.0 0.7890639270686503 -0.11556999281619897 0.0 1.2755831387951178 0.41809285653155454 0.0 1.2539962432852083 0.40115742414807204 0.0 1.2715707658025333 -0.41423905156300633 0.0 1.2446943668644426 -0.38111834813674994 0.0 0.5835286096502248 -0.16053903210051168 0.0 0.7964363070257527 -0.33181809678323937 0.0 1.010422028909718 0.6038005264203555 0.0 0.5917474921178859 0.15059743956556634 0.0 0.8125561129460872 0.33169716212676326 0.0 0.7458209096910603 0.08082618441785801 0.0 0.7825610908715701 -0.0730140634437134 0.0 0.0521715319807636 -0.022103354391621262 0.0 1.3634808131246812 0.20748762503361665 0.0 0.9298242878713086 -0.32222842043058036 0.0 1.344551793763297 -0.19003784054875503 0.0 0.4090951250340931 0.09080835828277864 0.0 0.42695138472630134 -0.0781902074328843 0.0 -0.05447320776306153 -0.008185619635897786 0.0 1.0573561579784763 0.35401516155581875 0.0 0.9431532533590935 0.3914749065416222 0.0 0.9222205561053707 0.11236744444878705 0.0 0.8242125157695167 -0.0869194358419746 0.0 1.3068107546850358 0.01665121573699125 0.0 1.0275106023154539 -0.34519370564147517 0.0 1.0744895395635174 -0.5703287338372167 0.0 0.9301339386842086 -0.389398993150816 0.0 0.9974669592374654 -0.4386529991827782 0.0 0.932931550478099 -0.542833457944372 0.0 0.865532948908642 -0.4065058070839486 0.0 1.2733672068167976 0.23292286781374266 0.0 1.2715260634997354 -0.21959172852725584 0.0 0.8526573190230405 -0.235636786830833 0.0 0.8790515745444981 -0.3099580522120711 0.0 0.8528969138427461 -0.29905178246324937 0.0 0.85141058348597 -0.25640391368374643 0.0 0.8542131416490463 -0.2527843167830647 0.0 0.8962747829893895 -0.3194698447666127 0.0 1.3292447347919911 0.315645140595402 0.0 1.0845510814483288 -0.0024115490855680815 0.0 1.3145906829191374 0.36239866812314986 0.0 1.3213328465153213 -0.29605438240714427 0.0 0.0 0.0 0.0 0.0 0.0 0.0 1.2994291969686378 -0.34946599624055724 0.0 0.7142447421244112 -0.2673254536086866 0.0 0.8203926186008053 -0.21077257446574119 0.0 0.8711718201175439 -0.11076256599834623 0.0 0.8624418514376686 -0.1637746090420321 0.0 0.9375 0.0 0.0 0.7500000000000001 0.0 0.0 0.722471027620686 0.2652992166983676 0.0 0.82403520631792 0.20014014286698215 0.0 0.7499999999999999 0.0 0.0 0.8697154598349498 0.12781810532327495 0.0 0.9287119058684002 0.042831461501719834 0.0 0.8481109343171264 0.04506215661718044 0.0 -0.034798910474351095 -0.011623265199895837 0.0 0.09133673473492096 -0.017610723347208958 0.0 1.11500853846187 0.5547875667265659 0.0 1.0190082055531458 0.4731538540198005 0.0 0.8809697420694638 0.24547395012289733 0.0 1.2000667232796964 0.13906665577329586 0.0 1.3288538452563718 0.059836181273416736 0.0 0.35175623950149554 0.03797638622828678 0.0 1.3561527558883055 0.10290361521767807 0.0 0.7138756053439859 0.0537475193895351 0.0 1.1711468024920524 0.10023920429084028 0.0 0.5144438506718383 0.015839745040983916 0.0 0.49605071317107985 0.030032418858648147 0.0 0.06966917991019621 0.013427639614473328 0.0 0.9566163880152536 0.03453688995573468 0.0 0.2569031152160324 0.022165217363452727 0.0 0.16312784392613844 0.008540573767835123 0.0 0.26745874654306656 0.014636556659929249 0.0 0.6665405702713996 -0.004798858304138886 0.0 0.49819426871922595 0.0070157817968633405 0.0 1.3157573493747294 0.0193258939591636 0.0 0.5424509551447111 0.0621898130412864 0.0 1.2302031550445265 -0.14199432398412748 0.0 0.20179014816155738 -0.03757755802057615 0.0 1.2058120841147004 0.1735821574894843 0.0 0.8828223964235523 0.17974139096686723 0.0 0.7011227128827943 -0.16795543525076148 0.0 1.1155576236176576 -0.094219916248026 0.0 1.0385405998551491 -0.22375441887194958 0.0 0.863751984442883 -0.18265691417388488 0.0 0.8754191990724152 -0.025600355715384104 0.0 0.4392695122934429 -0.048044568892622076 0.0 0.2902439034628187 -0.03306131347868841 0.0 1.3289568365298101 -0.04188735724116123 0.0 0.20835398811240366 -0.013511745906792343 0.0 1.3554254930285727 -0.08635101408123808 0.0 0.19132371283559474 -0.019092596025906444 0.0 0.5354578677845341 -0.015675863626692984 0.0 -0.0015849216843887577 -0.011287010143426859 0.0 0.5721297964114695 -0.031428887356525236 0.0 0.8788888368958682 0.2971582365281489 0.0 0.8795570124471124 0.4107750320801815 0.0 0.8850918348614717 0.2703406263296428 0.0 0.9122184739540006 0.10984721156073601 0.0 0.8651772245402012 0.22329799425201827 0.0 0.9047253019882823 0.30372408994261657 0.0 0.8572360308376756 0.2335251198176075 0.0 0.8020257426125782 0.18338501895077025 0.0 0.8670539319374208 0.16153115817428193 0.0 0.0 0.0 0.0 0.8415174258234062 0.1766961275840305 0.0 0.8706543776151656 0.17102356500595126 0.0 1.2131476426837349 0.049770566118208265 0.0 1.2375838975839897 0.0649767223513369 0.0 0.8901878427315223 0.013239378675418481 0.0 0.5939341331418174 -0.025940701877806505 0.0 1.2798872630801297 0.1471055489604925 0.0 0.7176180139994471 -0.1737261170965715 0.0 1.1779929154301068 -0.1645420256536156 0.0 0.9986083098556964 -0.019797425426355063 0.0 1.3235686392138484 -0.007720464155806472 0.0 0.5853841093304181 -0.00012892649979633314 0.0 1.220442736089521 -0.012600825370452514 0.0 0.9834476154315934 0.009223725323725396 0.0 -0.004591658096542397 -0.007080228881118059 0.0 -0.0961380608561072 0.0010766761650708935 0.0 0.9448552696320357 0.3412347831333573 0.0 0.8777418354875076 -0.018405709248893492 0.0 0.4273344886016014 -0.008148360212972326 0.0 0.0 0.0 0.0 1.3286842137247914 0.03750941018482661 0.0 1.212602347544634 0.024967714532304338 0.0 1.31726671325848 0.11461046880261876 0.0 1.2524553343631197 -0.04434857694728278 0.0 0.4133955841408454 -0.01379696130992314 0.0 1.2283153448083763 0.010512333535025514 0.0 1.2911610098402648 0.05689294384042379 0.0 0.04096612822763615 -0.009886094731662817 0.0 -0.08245745208630327 -0.005238142201876991 0.0 -0.06766431754503795 -0.007566206655136085 0.0 -0.08112199608466046 0.0029466147493174793 0.0 1.1858167880300032 0.21973710222655699 0.0 0.7774480253662153 0.198479077522733 0.0 0.7779130383658892 0.15423008728132492 0.0 0.7857365191714799 0.10690453719609884 0.0 0.6205730569606326 0.11098025010020643 0.0 0.3527610765682585 0.0014631724744339017 0.0 0.09308717724673389 0.003886806768888401 0.0 0.3645545893061724 -0.02058401208220877 0.0 1.071987479097548 0.07673965051221306 0.0 0.0 0.0 0.0 0.5197581556373081 0.011394123623332964 0.0 0.9318443877790697 0.029212759252316492 0.0 -0.10946603406284215 0.0005306518618245654 0.0 1.0970138896572807 0.2670424522886559 0.0 0.9003327698379163 0.11239214273117985 0.0 1.2803583294715801 -0.04953701621724558 0.0 0.18661343145448278 -0.0037190979929050787 0.0 0.35868882240829236 0.017794884828259284 0.0 0.14295126621406876 0.00010175322423125492 0.0 1.3029474500847162 0.03927389493743589 0.0 -0.10613785326753855 -0.00165988697687014 0.0 -0.07755337752765297 -0.006612913102222579 0.0 -0.09783493255108085 -0.004628482640628392 0.0 -0.04366957417523813 0.0069747019402063935 0.0 -0.09572503650508643 0.001017252672763744 0.0 -0.11597719820052796 -9.224572119508138e-06 0.0 -0.06696556032251048 -0.0020849665489436828 0.0 -0.041587375434890446 0.003419883704808101 0.0 -0.11980979548884772 -0.0020879563497958387 0.0 0.0749687692312891 -0.002007551262006276 0.0 -0.039002106253394855 0.005644959994174283 0.0 -0.12327194573206396 -0.0011360271707432678 0.0 -0.12192771663025272 -0.0007737588724144713 0.0 -0.024052453553805465 -0.0024445418402157244 0.0 0.0 0.0 0.0 0.946415972797821 0.2554642401058762 0.0 0.9513521119416488 0.040099499340549405 0.0 0.22452731203033746 -0.004406737193263853 0.0 0.3084793763213741 -0.004540948299956012 0.0 0.5442092122329379 0.02092496522082499 0.0 0.9122650825484686 0.04301074490966638 0.0 1.1920488799379743 0.034571775211349624 0.0 1.353733251625483 0.014656987049558002 0.0 0.08792555895345802 0.0021813368903298488 0.0 -0.036174321334606005 7.065313129742893e-05 0.0 0.0222840765260656 -0.0116477600653572 0.0 0.1350386975420688 -0.008760018128969078 0.0 0.12518193873747166 -0.01383277829696069 0.0 0.3151017131801102 -0.02330761000675561 0.0 0.5748950150723798 -0.05099424378601595 0.0 0.8593061685640261 -0.052504748158468006 0.0 0.36635701254224967 -0.03181556047331173 0.0 0.5549061791053839 -0.035902937062714364 0.0 0.6502268463133087 -0.047847524131679614 0.0 0.7699636998335073 -0.04113053242815967 0.0 0.25870305168308094 -0.028283848816709097 0.0 1.2728437580650624 -0.06468273234008018 0.0 1.058475695893876 -0.05189728820921889 0.0 1.2865420929903368 -0.02912085020505917 0.0 1.0489455953329467 -0.0397736183043981 0.0 -0.04319781733892996 -0.008771327256161254 0.0 1.0270229631007133 -0.06708724163217039 0.0 1.0600873609091608 -0.03012113812773791 0.0 1.2266892873380288 -0.10335464366057993 0.0 -0.10912336082520502 -0.0021322048838308253 0.0 0.46000015363288665 -0.04571729550671728 0.0 1.2513497337943082 -0.1055128471520781 0.0 0.13113410363963277 -0.021753515291135197 0.0 -0.12229771599222136 -0.0008219312253449139 0.0 1.2615610018653272 -0.08741861571908288 0.0 0.0627154393620041 -0.020981370228032786 0.0 -0.11182463329226602 -0.002484721129210831 0.0 -0.026572537923027748 0.010049527861358924 0.0 0.045221295077486685 -0.01763594280553833 0.0 -0.06808838276836476 -0.007911833772862746 0.0 0.4181285879015314 -0.048977354677142475 0.0 -0.04805952217110358 -0.010617187506249211 0.0 0.11190313750608046 0.03033126388066782 0.0 -0.08270739654461547 0.00577087792102504 0.0 -0.07325559900855558 -0.006144312719053523 0.0 -0.0998838453986202 0.0007850421103562037 0.0 0.03911628529892064 0.017245032831618 0.0 1.2157594327514556 0.1026636657056285 0.0 0.32730989143564554 0.03742969870401982 0.0 0.30403001281274145 -0.044676050694431035 0.0 0.2553972261126473 -0.010198935343992447 0.0 0.7079177273519001 -0.020645208342742156 0.0 0.3060096372586826 0.005558279050494253 0.0 1.1766007216445808 0.05298571011021816 0.0 0.8888100327128392 0.061002486592362654 0.0 0.9290193503493832 -0.08281493942000893 0.0 -0.047915027295929356 -0.004238782412982492 0.0 -0.059153008557631434 -0.0037128717584267363 0.0 -0.1193252560632852 -0.0015134516851537535 0.0 -0.04595467792820128 0.004058630965637579 0.0 -0.07990212699163741 -0.0042168398651842715 0.0 0.32542021206782734 -0.03857154966837125 0.0 1.258255373539674 -0.0935327523253002 0.0 0.625769980861648 -0.06165950861693272 0.0 0.8934403034112015 -0.08587349269585277 0.0 -0.02929201494841096 0.012948631513340799 0.0 0.060323006417831185 -0.02280044129382707 0.0 -0.008056272480455439 -0.014763608922490214 0.0 0.2077628942072551 -0.038512368281377135 0.0 -0.016973160916468135 -0.014387521223185196 0.0 1.2530899503319521 0.10611666722882637 0.0 -0.06731066402292446 -0.0008574234178964771 0.0 -0.015346114199521048 0.01096190166990272 0.0 -0.05196666172455526 0.00031611347918309194 0.0 0.05391159897448945 -0.021474874496915944 0.0 0.33698964458901054 0.024603943644035137 0.0 0.6877089035285543 -0.07008079686600724 0.0 0.5068738195403754 -0.05977270142953676 0.0 0.78666608375397 -0.06835192326421219 0.0 0.26406204055203186 -0.03834183029512695 0.0 0.8188890241175689 -0.08758657186843051 0.0 1.1663945272064906 -0.09105779078161966 0.0 1.067392196029912 -0.08366687197011245 0.0 1.04062574388511 -0.0751781438027508 0.0 0.5915979284501663 -0.06941783909495225 0.0 0.5030379081616319 -0.0644135107929755 0.0 0.39022840777906326 -0.057247112833704976 0.0 0.36560351959180803 -0.05394204571639981 0.0 0.1436188033769867 -0.03285178972294887 0.0 0.7864439858614581 -0.0881841280716857 0.0 0.259393033666976 0.014686845953402985 0.0 0.6065939640213313 0.037838646588402795 0.0 0.0666980128235283 0.005968638512366864 0.0 0.17121131198269327 0.017781962155023145 0.0 -0.07060934985765528 0.0002442373492911961 0.0 1.3327247766464239 -0.024411594882494878 0.0 1.2179114582785104 0.04114022180159847 0.0 1.3551898794375559 -0.012050333479578 0.0 1.3267574021168478 -0.06317654295964624 0.0 0.16843804786024996 -0.03571832986214009 0.0 0.35648049656690134 -0.05449746633405985 0.0 0.5584480476543617 0.046782971516072656 0.0 0.08682862286872109 0.015534251381961855 0.0 1.3082175370954978 0.0040734364443422676 0.0 1.3482667873516347 -0.03296008469759293 0.0 0.5169885029700085 0.06854743305198462 0.0 1.3271695754967792 -0.07666409442515947 0.0 0.5883799017875945 0.04327778814224277 0.0 1.282383814042348 0.07195040272312443 0.0 0.3323939545833435 0.03358482478763972 0.0 0.7037876999338235 0.06378491125624478 0.0 1.3347112488537258 0.024154050685737206 0.0 1.2312773433204913 -0.02419360328868602 0.0 1.3178585598209835 -0.08668633183245324 0.0 0.8246988192964867 0.061377111217183915 0.0 1.047581857489348 0.07897414358593396 0.0 1.106830077947849 0.07236386610443148 0.0 1.2666064823256962 0.09855510567869191 0.0 1.1282622098747561 0.09732822845491645 0.0 0.9745687369264674 0.08128530252293723 0.0 0.6683939674049798 0.06734205115790326 0.0 1.2735060827565579 -0.0899597303667233 0.0 0.0 0.0 0.0 1.3079347612588705 0.0578257182162533 0.0 0.9165198848155267 0.08958918944775325 0.0 0.32490120153217256 0.04197025843968054 0.0 1.3158598219431188 0.07163804005823304 0.0 0.8989928873231178 0.08536579277732828 0.0 1.270550285578397 0.09131571469241767 0.0 0.5976859263269592 0.06624955121996534 0.0 1.2616215489244615 0.10363906061603986 0.0 0.5485872086471607 0.06815723927173928 0.0 0.25540214194432975 0.04024820787840838 0.0 1.1462686087831813 0.10161593461292832 0.0 0.6608842027287303 0.07476293149877852 0.0 1.0719098234063595 0.1034020124858138 0.0 0.8440364292888151 0.09052878979709063 0.0 0.7750077543222234 0.08868216301241706 0.0 1.1954336607593692 0.08873087630888855 0.0 1.1158180471441665 0.09188986182767192 0.0 1.30615800140478 0.08191464328292486 0.0 0.15532971722892158 0.02884697382592611 0.0 1.1520554781615506 0.079094546517336 0.0 1.2160707387461154 0.10653150152385314 0.0 1.156833447397213 0.10749077095049336 0.0 1.2331752548582335 0.10710154739236413 0.0 1.2432708141541535 0.1082047224519081 0.0 1.29108470706557 0.08709840640256632 0.0 1.1831595875270318 0.06845739192067338 0.0 0.9441990437972987 0.10132024712124647 0.0 1.2290454854858612 0.09251430681316783 0.0 1.278878965986786 0.09070762654510867 0.0 1.0450695623964885 0.06527742694347523 0.0 1.1617590583834616 0.10948940801193469 0.0 1.0784411389711313 0.10791639490961366 0.0 1.0590256179011097 0.10610838728398352 0.0 1.2321140726646673 0.09678999049164012 0.0 0.0 0.0 0.0 0.6445054347613802 -0.005599342760515343 0.0 1.0778258800703993 0.4342468453237397 0.0 1.1668927175439183 0.42226174727462606 0.0 1.0822580740252317 -0.42678272299624687 0.0 0.8656085124016928 -0.2270242009310393 0.0 0.9788951923614354 -0.2555147260541318 0.0 0.8923696225326221 -0.08499828528306726 0.0 1.222853764551407 -0.05227365053213831 0.0 1.0814730762997973 -0.06398442063539975 0.0 1.1987589111058123 -0.1044352635462605 0.0 1.2651792984284413 -0.08453463733023066 0.0 1.3153533913166418 -0.05368914241607976 0.0 -0.08308412098155842 -0.002601937158931914 0.0 -0.05036141163873761 0.007664579545420441 0.0 0.0006923489286146506 0.010026843961163543 0.0 0.0006348856725738248 0.012023568307889119 0.0 0.14657220946513155 0.026813576849784644 0.0 -0.05705490811599076 0.00816919009078109 0.0 0.06112137986298504 0.02186639459156459 0.0 0.21665586740698844 0.03708180783804647 0.0 0.08479140231754974 0.038132115663688036 0.0 -0.03605410627372552 0.014986813732627948 0.0 1.0348370658195825 0.16078540201694738 0.0 -0.07034106709253257 0.00463521735371788 0.0 1.2550584728645457 -0.10055675153682479 0.0 1.1424069299615178 -0.09818311704449134 0.0 0.9513051270424387 -0.09242012477992981 0.0 1.1046549056183859 -0.10209527281496843 0.0 1.2400534310708768 -0.1065213685430313 0.0 0.9139865565903837 -0.09533256812060592 0.0 1.2476154970281608 -0.10670045427859626 0.0 1.078698031855317 -0.10486710716637768 0.0 1.1337962308245515 -0.10484107704901953 0.0 0.8649955469467191 -0.09476720682397155 0.0 0.9084561042127192 -0.09717690599154837 0.0 0.6275374309034307 -0.07760584708108031 0.0 1.1052713314316345 -0.10741450119379412 0.0 1.2338007190575384 -0.10631850048086869 0.0 1.0699806378770604 -0.10523257914559048 0.0 1.168126075891754 -0.08588481215870286 0.0 1.1938615029891542 -0.10854359975058174 0.0 0.6837045699295385 -0.08166593261013254 0.0 1.141884006130631 -0.10574009959405331 0.0 0.9405817456533434 -0.09859