<?xml version="1.0"?>
<VTKFile type="UnstructuredGrid"  version="0.1"  >
<UnstructuredGrid>
<Piece  NumberOfPoints="1289" NumberOfCells="2413">
<Points>
<DataArray  type="Float64"  NumberOfComponents="3"  format="ascii">0 0 0  0 0.41 0  2.2 0.41 0  2.2 0 0  0.1 0.1 0  0.1 0.3 0  0.8 0.3 0  0.8 0.1 0  0.25 0.2 0  0.248976 0.210065 0  0.245948 0.219718 0  0.241038 0.228563 0  0.234448 0.23624 0  0.226448 0.242432 0  0.217365 0.246888 0  0.207571 0.249423 0  0.197468 0.249936 0  0.187467 0.248404 0  0.17798 0.24489 0  0.169395 0.239539 0  0.162062 0.232569 0  0.156283 0.224265 0  0.152293 0.214968 0  0.150257 0.205058 0  0.150257 0.194942 0  0.152293 0.185032 0  0.156283 0.175735 0  0.162062 0.167431 0  0.169395 0.160461 0  0.17798 0.15511 0  0.187467 0.151596 0  0.197468 0.150064 0  0.207571 0.150577 0  0.217365 0.153112 0  0.226448 0.157568 0  0.234448 0.16376 0  0.241038 0.171437 0  0.245948 0.180282 0  0.248976 0.189935 0  1.1 0 0  1.1 0.41 0  0.1 0.2 0  0.45 0.1 0  0.45 0.3 0  0.55 0 0  0.275 0.1 0  0.275 0.3 0  0.275 0 0  0.55 0.41 0  0 0.205 0  0.825 0 0  0.825 0.41 0  0.275 0.41 0  0.1 0.15 0  0.1875 0.1 0  0.1 0.25 0  0.1875 0.3 0  0.132322 0.2 0  0.241426 0.253518 0  0.241426 0.146482 0  0.264574 0.17974 0  0.264574 0.22026 0  0.138434 0.187348 0  0.153372 0.150948 0  0.148413 0.164094 0  0.176495 0.136535 0  0.22768 0.143571 0  0.138434 0.212652 0  0.148413 0.235906 0  0.176495 0.263465 0  0.22768 0.256429 0  0.23125 0.3 0  0.24769 0.24094 0  0.23125 0.1 0  0.24769 0.15906 0  0.26253 0.193641 0  0.190482 0.137872 0  0.166753 0.146661 0  0.157737 0.244461 0  0.190482 0.262128 0  0.203107 0.261264 0  0.253635 0.22977 0  0.203107 0.138736 0  0.253635 0.17023 0  0.261028 0.206206 0  0.167707 0.251809 0  0.143629 0.224191 0  0.215302 0.2591 0  0.270465 0.245894 0  0.215302 0.1409 0  0.270465 0.154106 0  0.284052 0.202587 0  0.14375 0.3 0  0.209375 0.3 0  0.225966 0.278501 0  0.209375 0.1 0  0.225966 0.121499 0  0.211613 0.273759 0  0.211613 0.126241 0  0.143629 0.175809 0  0.1 0.175 0  0.133484 0.164832 0  0.144491 0.249539 0  0.1 0.225 0  0.133484 0.235168 0  0.3625 0.3 0  0.25691 0.253381 0  0.25691 0.146619 0  0.277205 0.188698 0  0.184724 0.275712 0  0.237372 0.268285 0  0.184724 0.124288 0  0.237372 0.131715 0  0.197578 0.273149 0  0.193656 0.286994 0  0.197578 0.126851 0  0.193656 0.113006 0  0.122953 0.187671 0  0.118362 0.153758 0  0.155372 0.258107 0  0.122953 0.212329 0  0.118362 0.246242 0  0.276394 0.27264 0  0.276394 0.12736 0  0.280965 0.170013 0  0.253125 0.3 0  0.14375 0.1 0  0.253125 0.1 0  0.269489 0.26014 0  0.269489 0.13986 0  0.303639 0.184297 0  0.165625 0.3 0  0.134742 0.273113 0  0.257831 0.274737 0  0.255279 0.128499 0  0.3625 0.1 0  0.165625 0.1 0  0.162031 0.132368 0  0.134955 0.126405 0  0.149334 0.125568 0  0.142936 0.139597 0  0.12695 0.140259 0  0.242514 0.285501 0  0.242514 0.114499 0  0.1 0.125 0  0.117483 0.12555 0  0.11154 0.139776 0  0.121875 0.1 0  0.109143 0.1125 0  0.126805 0.114 0  0.220313 0.29129 0  0.351562 0.287369 0  0.207222 0.2866 0  0.220312 0.10871 0  0.1375 0 0  0.20625 0 0  0.207222 0.1134 0  0.11722 0.17118 0  0.1 0.1625 0  0.0778409 0.16875 0  0.0862762 0.15625 0  0 0.15375 0  0 0.1025 0  0.11722 0.22882 0  0.1 0.2375 0  0 0.3075 0  0.0862762 0.23125 0  0.0598995 0.222547 0  0.0860223 0.2125 0  0.289584 0.181469 0  0.300267 0.16446 0  0.163832 0.269071 0  0.149597 0.273325 0  0.1 0.275 0  0.268498 0.285953 0  0.31875 0.3 0  0.294154 0.254672 0  0.296875 0.3 0  0.293558 0.271845 0  0.285095 0.286799 0  0.324298 0.264316 0  0.307866 0.263745 0  0.317093 0.234901 0  0.315485 0.281219 0  0.316547 0.250625 0  0.344693 0.243731 0  0.331592 0.251147 0  0.35129 0.270663 0  0.338689 0.263683 0  0.340625 0.3 0  0.249849 0.264383 0  0.265097 0.11422 0  0.284688 0.156136 0  0.242188 0.324017 0  0.0856613 0.2625 0  0.132812 0.0612217 0  0.264062 0.0612217 0  0.198437 0.07598340000000001 0  0.0860223 0.1375 0  0.0794526 0.191089 0  0.285228 0.140397 0  0.298655 0.148737 0  0.31875 0.1 0  0.327335 0.15374 0  0.296875 0.1 0  0.312289 0.155283 0  0.313348 0.135607 0  0.321802 0.173916 0  0.298433 0.134116 0  0.112124 0.2625 0  0.127526 0.259083 0  0.121875 0.3 0  0.0682687 0.241503 0  0.1 0.2875 0  0.117762 0.28125 0  0.107813 0.3 0  0.103906 0.313849 0  0.0778409 0.28125 0  0.1375 0.41 0  0.0862762 0.29375 0  0.08886860000000001 0.24375 0  0.307812 0.338778 0  0.307812 0.292227 0  0.33216 0.279164 0  0.387888 0.266414 0  0.264063 0.31948 0  0.110937 0.07598340000000001 0  0.242188 0.07598340000000001 0  0.319914 0.11839 0  0.340625 0.1 0  0.334448 0.133793 0  0.329687 0.108539 0  0.346259 0.118491 0  0.360334 0.173636 0  0.327539 0.205033 0  0.132812 0.288712 0  0.362436 0.278836 0  0.368105 0.259418 0  0.4125 0.41 0  0.329687 0.324017 0  0.329687 0.292306 0  0.285938 0.318952 0  0.417187 0.338778 0  0.324481 0.14148 0  0.351562 0.106771 0  0.40625 0.1 0  0.341028 0.168342 0  0.319221 0.190479 0  0.335292 0.184501 0  0.305563 0.20794 0  0.220313 0.31948 0  0.132812 0.332772 0  0.0865876 0.311259 0  0.0598995 0.302453 0  0.0906541 0.343255 0  0.353543 0.255837 0  0.36574 0.237633 0  0.405007 0.254279 0  0.275795 0.352123 0  0.4125 0 0  0.35493 0.137394 0  0.366563 0.120618 0  0.35917 0.205246 0  0.198438 0.318952 0  0.0626109 0.263892 0  0.40625 0.3 0  0.354809 0.155936 0  0.386512 0.146872 0  0.373101 0.159939 0  0.384375 0.1 0  0.343394 0.19929 0  0.350682 0.185683 0  0.368101 0.189748 0  0.344016 0.221511 0  0.391108 0.213329 0  0.376279 0.204783 0  0.398843 0.182768 0  0.375804 0.222746 0  0.390665 0.196958 0  0.394004 0.23518 0  0.359883 0.222828 0  0.419908 0.204359 0  0.404243 0.204783 0  0.412615 0.224526 0  0.20625 0.41 0  0.165625 0.325257 0  0.0347982 0.244954 0  0.379558 0.247154 0  0.34165 0.147603 0  0.372264 0.136992 0  0.388988 0.121989 0  0.373437 0.108554 0  0.351562 0.31948 0  0.391367 0.16527 0  0.399572 0.223324 0  0.452011 0.227371 0  0.40877 0.239392 0  0.431491 0.237337 0  0.421224 0.250459 0  0.449619 0.262098 0  0.418865 0.276779 0  0.437063 0.252274 0  0.415673 0.263227 0  0.430988 0.266772 0  0.402767 0.273419 0  0.452967 0.244883 0  0.428125 0.3 0  0.408502 0.286186 0  0.384375 0.3 0  0.392267 0.285807 0  0.465927 0.219339 0  0.43489 0.283846 0  0.376424 0.286289 0  0.625 0.3 0  0.473533 0.205186 0  0.461713 0.255517 0  0.5375 0.3 0  0.465725 0.235405 0  0.44631 0.201425 0  0.471875 0.3 0  0.494307 0.227729 0  0.459448 0.206736 0  0.462294 0.180792 0  0.478933 0.227536 0  0.486793 0.21381 0  0.486322 0.251373 0  0.50065 0.215318 0  0.54005 0.175389 0  0.474633 0.189893 0  0.512916 0.208697 0  0.49531 0.199967 0  0.475889 0.175275 0  0.625 0.1 0  0.459311 0.153933 0  0.513645 0.242704 0  0.392892 0.248539 0  0.374815 0.271913 0  0.365974 0.14871 0  0.395312 0.109184 0  0.417061 0.123981 0  0.483196 0.277003 0  0.381967 0.179632 0  0.429898 0.219374 0  0.433473 0.206165 0  0.43149 0.181038 0  0.444208 0.215487 0  0.472985 0.247309 0  0.49375 0.3 0  0.475579 0.262714 0  0.49916 0.274293 0  0.501175 0.184809 0  0.514164 0.225681 0  0.543648 0.214977 0  0.5341630000000001 0.23481 0  0.527396 0.216171 0  0.5375 0.1 0  0.534548 0.202315 0  0.561545 0.192513 0  0.5494289999999999 0.201221 0  0.570923 0.218346 0  0.412582 0.149833 0  0.489327 0.264745 0  0.502439 0.254775 0  0.462391 0.271166 0  0.496775 0.241732 0  0.5294410000000001 0.268606 0  0.482812 0.291099 0  0.46879 0.285038 0  0.452663 0.284065 0  0.51789 0.257882 0  0.53408 0.252026 0  0.560142 0.243543 0  0.545708 0.243474 0  0.547532 0.229019 0  0.55282 0.265323 0  0.398971 0.153424 0  0.400349 0.135684 0  0.410135 0.168145 0  0.428823 0.161323 0  0.415266 0.183779 0  0.329687 0.0810483 0  0.395312 0.0612217 0  0.373437 0.318952 0  0.439062 0.324017 0  0.561816 0.229354 0  0.585029 0.239287 0  0.431827 0.139854 0  0.446796 0.168929 0  0.351562 0.07598340000000001 0  0.395313 0.318944 0  0.54337 0.150762 0  0.460937 0.31948 0  0.418412 0.137529 0  0.428125 0.1 0  0.442783 0.152332 0  0.450742 0.134294 0  0.373437 0.0805201 0  0.384383 0.342558 0  0.482812 0.318952 0  0.429239 0.127457 0  0.444274 0.117405 0  0.426548 0.113815 0  0.49375 0.1 0  0.488954 0.113984 0  0.457973 0.121842 0  0.471621 0.137346 0  0.515625 0.325257 0  0.48125 0.41 0  0.417187 0.07598340000000001 0  0.496363 0.126778 0  0.479043 0.155715 0  0.439062 0.0805201 0  0.481795 0.126919 0  0.471875 0.1 0  0.489227 0.142159 0  0.515625 0.1 0  0.520062 0.147117 0  0.501244 0.161791 0  0.505431 0.112984 0  0.505344 0.14029 0  0.526563 0.119081 0  0.5181750000000001 0.131908 0  0.539868 0.136937 0  0.460937 0.108383 0  0.474242 0.114415 0  0.460937 0.0810483 0  0.487841 0.167168 0  0.526563 0.0612217 0  0.526563 0.106406 0  0.537619 0.112743 0  0.58125 0.1 0  0.559375 0.1 0  0.482812 0.08105569999999999 0  0.471883 0.0587655 0  0.570312 0.129396 0  0.548437 0.07598340000000001 0  0.504687 0.08105569999999999 0  0.49375 0.0470127 0  0.570312 0.112663 0  0.592798 0.12103 0  0.553986 0.12103 0  0.570312 0.0805201 0  0.48125 0 0  0.114787 0.2 0  0.160769 0.284765 0  0.175816 0.288361 0  0.162602 0.116048 0  0.154687 0.07598340000000001 0  0.176562 0.0805201 0  0.0598995 0.147547 0  0.307812 0.109924 0  0.291279 0.117157 0  0.278491 0.112989 0  0.285937 0.07598340000000001 0  0.307812 0.0805201 0  0.296928 0.196743 0  0.318141 0.218507 0  0.330208 0.227509 0  0.301397 0.225668 0  0.302706 0.241401 0  0.292574 0.21424 0  0.282762 0.230935 0  0.284351 0.244775 0  0.269553 0.23261 0  0.278572 0.217242 0  0.226924 0.342606 0  0.446928 0.185396 0  0.515625 0.3 0  0.504687 0.288879 0  0.515256 0.276534 0  0.529479 0.285328 0  0.58125 0.3 0  0.541969 0.272936 0  0.559375 0.3 0  0.556796 0.282529 0  0.543473 0.287206 0  0.581429 0.267774 0  0.566728 0.271171 0  0.570869 0.255585 0  0.577404 0.283865 0  0.603125 0.3 0  0.597531 0.28035 0  0.570312 0.338778 0  0.592188 0.292492 0  0.603513 0.256094 0  0.614063 0.286265 0  0.610329 0.27064 0  0.632708 0.251285 0  0.657223 0.261594 0  0.618789 0.257807 0  0.614188 0.22987 0  0.630935 0.265614 
[...]
<PointData  Vectors="v"> 
	<DataArray  type="Float64"  Name="v"  NumberOfComponents="3" format="ascii">
0.0 0.0 0.0 0.0 0.0 0.0 0.0 0.0 0.0 0.0 0.0 0.0 0.7962301372344855 -0.19598237155432452 0.0 0.8404082156639334 0.20776970274620402 0.0 1.1690116101111854 -0.06010294622486298 0.0 1.1362375338187232 0.055211936456603564 0.0 0.0 0.0 0.0 0.0 0.0 0.0 0.0 0.0 0.0 0.0 0.0 0.0 0.000855080605933063 0.0007944396255209398 0.0 0.00020112593740700057 0.00021272055640673976 0.0 0.00044920457923428025 0.0007902975537293257 0.0 0.0 0.0 0.0 0.0 0.0 0.0 0.0 0.0 0.0 0.0 0.0 0.0 0.0 0.0 0.0 0.0 0.0 0.0 0.0 0.0 0.0 0.0 0.0 0.0 0.0 0.0 0.0 0.0 0.0 0.0 0.0 0.0 0.0 0.0 0.0 0.0 0.0 0.0 0.0 0.0 0.0 0.0 0.0 0.0 0.0 0.0 0.0 0.0 0.0 0.0 0.0 0.0 0.0 0.0 0.0005235568951607115 -0.0009102442371609445 0.0 0.00045559002948659895 -0.0006542231611383677 0.0 0.0008431175970311226 -0.000786284248281427 0.0 0.0 0.0 0.0 0.0 0.0 0.0 0.0 0.0 0.0 0.0 0.0 0.0 0.0 0.0 0.0 0.7613283005383008 -0.0012823398402177506 0.0 1.2755817186058975 0.08285696257478646 0.0 1.2662319582156925 -0.0774545695675011 0.0 0.0 0.0 0.0 1.3536286650311415 -0.13301423994478878 0.0 1.3581998911648077 0.15483956307699867 0.0 0.0 0.0 0.0 0.0 0.0 0.0 1.0 0.0 0.0 0.0 0.0 0.0 0.0 0.0 0.0 0.0 0.0 0.0 0.8425931619025016 -0.23188602005062617 0.0 1.1513873258322787 -0.34433218641972996 0.0 0.8637821285135014 0.22930788621474954 0.0 1.1662914893278533 0.35410402907022764 0.0 0.4282351411235033 -0.003968006848526701 0.0 0.16500315341674968 0.06244567472695798 0.0 0.16988144370521177 -0.060979094151964626 0.0 -0.027435053660431374 -0.038273267314645955 0.0 -0.025835787575464 0.03625914194372127 0.0 0.33437725551370795 -0.27984091231244873 0.0 0.8578872264834573 -0.6734584916759854 0.0 0.6399900158153168 -0.6881484585329403 0.0 1.206129528769302 -0.6132954613158199 0.0 0.41546805064989484 -0.06921412067221694 0.0 0.3304474792068811 0.2687497070826292 0.0 0.6428332699668196 0.6693277385019458 0.0 1.185153670227784 0.6153902803495683 0.0 0.40802228633324483 0.07144625196430429 0.0 1.313259723025508 0.26090584234646125 0.0 0.3230744118335573 0.25179107328543315 0.0 1.3026257294434576 -0.24054384664135509 0.0 0.31423864224151904 -0.23928508843554053 0.0 -0.03343120751652965 -0.01692252689084796 0.0 1.1248628341100153 -0.39874967881657725 0.0 1.093187528774639 -0.724336187203278 0.0 0.8520595488809906 0.7707490262276546 0.0 1.1313751656015065 0.3995592719049904 0.0 0.7593762456917358 0.18601796492774864 0.0 0.1087136883360609 0.05140475208332167 0.0 0.7693146863722328 -0.18190095858862035 0.0 0.11112149626437107 -0.049842528394533986 0.0 -0.029490857520313225 0.01905573689139587 0.0 1.0275134635473058 0.7188871170643656 0.0 0.44238278829987737 0.5291997581635874 0.0 0.4579876033839024 0.17779650572369216 0.0 0.2709651989268903 0.06898493406382376 0.0 0.4640735382671734 -0.17356646109534005 0.0 0.2767844335737607 -0.06462283164754157 0.0 -0.0749840007051806 0.0023017702798137597 0.0 0.9654828266428219 0.3174189769346134 0.0 1.2605767011434559 0.3132100381417566 0.0 1.2451647746912682 0.2888717030380757 0.0 1.2348166442609887 -0.30766814654958996 0.0 1.2477626137262803 -0.2810447654039574 0.0 1.2201886555755879 0.33106173807458067 0.0 1.2260755451693868 -0.32264785872335333 0.0 0.4428853028332889 -0.5445665310060311 0.0 0.8020156931307182 -0.13962613291495468 0.0 0.6715068819180425 -0.41969487951940176 0.0 0.8773704609702745 0.5938512216535607 0.0 0.7993055885272299 0.14280874604748886 0.0 0.6764931327678704 0.4201565301952559 0.0 1.29276412918106 -0.0072077658187200576 0.0 0.2930233403372016 0.14423799643426158 0.0 0.29452579541735163 -0.1343095171166642 0.0 -0.05424545298635941 -0.012908286866299966 0.0 1.265074012353735 0.4718355889831399 0.0 0.7687315461426593 0.12086529748242276 0.0 1.2611011473479543 -0.47328808172235604 0.0 0.7890430005831472 -0.11561403220324529 0.0 1.275610541955805 0.4180925863965276 0.0 1.2540149736476967 0.40115224789249704 0.0 1.271544934847948 -0.41423625328235314 0.0 1.244675688714698 -0.3811215121463439 0.0 0.5835258902645496 -0.16052195932235944 0.0 0.7964305908668834 -0.33180434530517783 0.0 1.010436106916147 0.6038101652137443 0.0 0.591750483312166 0.1506145614986501 0.0 0.8125622368824132 0.33171083487288056 0.0 0.745875991975798 0.08080629400408368 0.0 0.7825229068901177 -0.07302937684674725 0.0 0.05216483283721484 -0.02206507147606737 0.0 1.363485936343625 0.2074623143133998 0.0 0.9298150297050728 -0.3222233234467431 0.0 1.3445463459557414 -0.19006165499317307 0.0 0.4091074509210107 0.09077565282479293 0.0 0.4269473418607595 -0.0782129409199899 0.0 -0.054489164844791216 -0.008159150756160975 0.0 1.0573679407443295 0.3540154091304309 0.0 0.9431627433346255 0.3914835168684786 0.0 0.9222575878221202 0.11234909368966346 0.0 0.8241822195212748 -0.0869313609444641 0.0 1.3068020863896954 0.016626928038694973 0.0 1.027498770221464 -0.3451922302536087 0.0 1.0744760623770715 -0.5703213043132148 0.0 0.9301246788868076 -0.38939002289391317 0.0 0.9974556104621539 -0.4386458193655544 0.0 0.9329208726737781 -0.5428221517203524 0.0 0.8655252530145255 -0.4064938797224432 0.0 1.2734032686433585 0.2329012187013256 0.0 1.2715004247906467 -0.21961389845011506 0.0 0.8526524750509772 -0.2356270312916199 0.0 0.8790446655820294 -0.3099483445282641 0.0 0.8528910067913856 -0.29904037898438074 0.0 0.8514034793378067 -0.25639740618181767 0.0 0.8542071621988844 -0.25277601417746054 0.0 0.8962669212579453 -0.3194619050999148 0.0 1.3292652256402424 0.3156255588163975 0.0 1.0845963402054764 -0.0024424607068064025 0.0 1.3146135870863074 0.36238774201380886 0.0 1.3213112507323685 -0.2960720700775144 0.0 0.0 0.0 0.0 0.0 0.0 0.0 1.2994064795610842 -0.3494746301117572 0.0 0.7142408677332288 -0.26731004713361983 0.0 0.8203890382732077 -0.2107593259368057 0.0 0.871170269247936 -0.1107508832580519 0.0 0.8624391642441033 -0.1637629416444297 0.0 0.9375 0.0 0.0 0.7500000000000001 0.0 0.0 0.7224751609372072 0.26531461087271324 0.0 0.824038996630953 0.20015335701880319 0.0 0.7499999999999999 0.0 0.0 0.8697178021013746 0.12783061506080598 0.0 0.9287128387690103 0.04284064761883462 0.0 0.8481117561982446 0.04507529964061365 0.0 -0.034819092623767034 -0.011586066415433803 0.0 0.0913254161829428 -0.017581232532285395 0.0 1.1150235074545165 0.5547938005483228 0.0 1.019020342271715 0.47316123158894974 0.0 0.880974633383909 0.24548359076475654 0.0 1.2001076046477643 0.1390457440351821 0.0 1.328869851260235 0.05981012943597019 0.0 0.3517475519294104 0.03797639826562541 0.0 1.3561655394113168 0.10287859291497704 0.0 0.7139191684976282 0.053725265359892735 0.0 1.1711905271123901 0.10021660050886301 0.0 0.5144926278428058 0.015818601554773375 0.0 0.4960907357980066 0.03001777873872367 0.0 0.06969250108644229 0.013432120961689616 0.0 0.9566755519465502 0.03451321323797651 0.0 0.2569435359708177 0.02215782798957158 0.0 0.16317229823537935 0.008519544355903678 0.0 0.2675038295811252 0.014620768578734218 0.0 0.6666032870532982 -0.004832276247349774 0.0 0.4982545106075615 0.006988360448707616 0.0 1.3157702916516556 0.01930040970065732 0.0 0.5424711181304532 0.062190628300704036 0.0 1.230166827526342 -0.14201689914770704 0.0 0.20181724960995798 -0.03756171680373758 0.0 1.205812512117251 0.17356193834651723 0.0 0.8828257204618655 0.17975139618104247 0.0 0.7011156176313283 -0.1679527231864829 0.0 1.1155612480175796 -0.09423281810792394 0.0 1.0385309774085907 -0.22376099144022274 0.0 0.8637486626757342 -0.1826469360011473 0.0 0.8754189338807886 -0.025587998653417793 0.0 0.4392730350740595 -0.04805761968244756 0.0 0.2902465506481062 -0.03305647883922396 0.0 1.3289437099370227 -0.04190772856545821 0.0 0.2083226127213148 -0.0135116621072629 0.0 1.3554175909101727 -0.08637068207881442 0.0 0.19130603291669038 -0.019081187652403957 0.0 0.5354241779131197 -0.015688313923012516 0.0 -0.001604291699795332 -0.0112773137852367 0.0 0.5721043156149347 -0.031442283751473135 0.0 0.8788951845164681 0.2971690941730769 0.0 0.8795651333498855 0.4107868940329693 0.0 0.8850986881597949 0.2703467774755116 0.0 0.9122201909329357 0.10985711931257883 0.0 0.8651820270570415 0.22330582698432647 0.0 0.9047323554680171 0.3037327833614855 0.0 0.8572416440535116 0.23353202168389287 0.0 0.8020306520174257 0.18339030774887444 0.0 0.8670571157876872 0.16153909243658326 0.0 0.0 0.0 0.0 0.8415210159157845 0.1767033812644287 0.0 0.8706574481104249 0.17103520576002784 0.0 1.2131309099563337 0.04975284578010504 0.0 1.2376206833004835 0.064953135336293 0.0 0.8902433691914164 0.013213327703760842 0.0 0.5939926947605764 -0.025988146760338917 0.0 1.2798835763425314 0.14708105660140477 0.0 0.7176128052598685 -0.17372108751565954 0.0 1.1779906350983391 -0.16455819829998664 0.0 0.9985615695698363 -0.019813667922448507 0.0 1.32355801405269 -0.007742008062620453 0.0 0.5853351626669752 -0.000148143589714122 0.0 1.220411064156846 -0.012618258427626115 0.0 0.9833982677105161 0.00920049553845645 0.0 -0.004612515582733545 -0.0071027885551407256 0.0 -0.09613783611098661 0.0010792487275215821 0.0 0.9448640665068349 0.34124149312918434 0.0 0.8777963515221487 -0.018439891426031526 0.0 0.4273962873855515 -0.008186322665705164 0.0 0.0 0.0 0.0 1.328660107340069 0.03748732210649576 0.0 1.2126372912171817 0.024940776247035435 0.0 1.317255758336981 0.11458547826343336 0.0 1.2524006044298053 -0.0443609234814551 0.0 0.4133602925690462 -0.013805050185016104 0.0 1.2282896461806865 0.0104880190217455 0.0 1.2911745281890368 0.05685882550441567 0.0 0.04094080491015153 -0.00989284925622054 0.0 -0.08246713421232801 -0.005225580952994952 0.0 -0.06767627328182835 -0.007566614582451746 0.0 -0.08112426729437258 0.002968112876166003 0.0 1.1858240196665004 0.2197220234186719 0.0 0.7774541040131604 0.19848160316475486 0.0 0.7779163896617459 0.15423583017925538 0.0 0.7857382959458444 0.10691009761299192 0.0 0.6205763920848457 0.11098392166203663 0.0 0.3528184424238018 0.001433026299979595 0.0 0.09312919691818743 0.0038499915167065422 0.0 0.36460632604973103 -0.020650560080598162 0.0 1.0719766538749134 0.07672568639412657 0.0 0.0 0.0 0.0 0.5197045343535421 0.011369882643027789 0.0 0.9317962334785167 0.029182533366130983 0.0 -0.10945888375257398 0.0005055236938811419 0.0 1.0970233734476815 0.26703411773380886 0.0 0.9003345342693946 0.1124000628467624 0.0 1.2803416086812809 -0.0495688279739699 0.0 0.1865728742036195 -0.0037384123233304553 0.0 0.35863760989741483 0.017748568493249125 0.0 0.14291469655612696 6.841226035769221e-05 0.0 1.3029484469870427 0.03924368300781082 0.0 -0.10613833362764605 -0.0016694531373626753 0.0 -0.07756364830239304 -0.006626937959622979 0.0 -0.09783969013724758 -0.004660192319778445 0.0 -0.04365122824075155 0.006959464442091954 0.0 -0.09570942641385252 0.0009547660652595381 0.0 -0.1159684499509978 -5.249114159487506e-05 0.0 -0.06697050013692582 -0.00215707365253601 0.0 -0.04156195824937609 0.0033752263870554335 0.0 -0.11980567072241455 -0.002150236502683836 0.0 0.07500612242498837 -0.002069610113013778 0.0 -0.03897768999757291 0.005615966780906841 0.0 -0.12326374208437264 -0.001252758796353659 0.0 -0.12191857307518446 -0.0008597246696545666 0.0 -0.024033790713683504 -0.002538061728185589 0.0 0.0 0.0 0.0 0.9464248305955146 0.2554629989703437 0.0 0.9513523715124523 0.04010480014939935 0.0 0.22458066762739035 -0.00445239785787648 0.0 0.3084371835628294 -0.004553113909707685 0.0 0.5441506493439646 0.020889606341269327 0.0 0.9122195273879621 0.04296988302444291 0.0 1.1920248826571664 0.034541979492280446 0.0 1.3537070491395535 0.01463404083810051 0.0 0.08789815131352852 0.002125925817043747 0.0 -0.03615156922267647 -2.544853642162754e-06 0.0 0.02226463147919799 -0.011819120973246946 0.0 0.13507370655536668 -0.008838665402638994 0.0 0.125194634914445 -0.01394842191284823 0.0 0.31513783295793474 -0.023393913286150838 0.0 0.5748932044923529 -0.05109434668971823 0.0 0.8593321579707196 -0.05256213526440688 0.0 0.36637550459292384 -0.03191956328400462 0.0 0.5549509945736715 -0.035971846779168135 0.0 0.6502523530094119 -0.04792380606279366 0.0 0.7700091128004146 -0.04118250467510718 0.0 0.25868807202539895 -0.02842329789270252 0.0 1.2728069560796391 -0.06471389685381267 0.0 1.0584913273118841 -0.0519413027544613 0.0 1.2865398428032342 -0.029150601666871875 0.0 1.048974962138866 -0.03981322049671327 0.0 -0.04323235238709997 -0.008989239737193214 0.0 1.0270136770796903 -0.06714230856441844 0.0 1.0601237296880155 -0.030156484653673026 0.0 1.2265229247003686 -0.10308671602562497 0.0 -0.10913315728084017 -0.002384776588973091 0.0 0.4599707726110558 -0.04584537044474748 0.0 1.2511363221836798 -0.10545127185944547 0.0 0.13108621103647533 -0.021937796727826746 0.0 -0.1222927144683026 -0.0010013538831359539 0.0 1.2614648755482212 -0.0874420735314493 0.0 0.06259979193216966 -0.021239755116090588 0.0 -0.11182821244302688 -0.0026992096670623513 0.0 -0.02653008682860916 0.009840494447209063 0.0 0.04514413471612923 -0.017869473548257377 0.0 -0.06814114584322338 -0.0081871079274632 0.0 0.41802307887483914 -0.049139854484547246 0.0 -0.04814460474555412 -0.010916213705795486 0.0 0.11219776494035257 0.030076554342213364 0.0 -0.08266890503174522 0.005518182202379512 0.0 -0.07331419660597394 -0.00647491363062576 0.0 -0.09987292524169707 0.0004768154906269776 0.0 0.03919100192132723 0.01701284208587552 0.0 1.2158857951812805 0.10292807383771671 0.0 0.3273400043995632 0.03728169317023696 0.0 0.3038068565836322 -0.044889542723281016 0.0 0.2554492753039833 -0.010256711236989336 0.0 0.7079778552422504 -0.020686504014378534 0.0 0.30595937450265565 0.005528438189899484 0.0 1.1765852056279282 0.05294733937317892 0.0 0.8887793527190742 0.06094335311707868 0.0 0.9289163503821686 -0.08288956363544041 0.0 -0.0479275768483899 -0.004286230479792021 0.0 -0.059148557367980185 -0.0038446851081638577 0.0 -0.11931988348238276 -0.0016597761780928488 0.0 -0.04594433302601426 0.003923282005117699 0.0 -0.0799073834577157 -0.0043841659184584054 0.0 0.32535685181315155 -0.038735330476813615 0.0 1.2581197592114104 -0.09354003946521129 0.0 0.6257020455839177 -0.061777976848958666 0.0 0.8932841760366312 -0.0859494425560332 0.0 -0.02918970155812271 0.01265375877402721 0.0 0.0601427455338011 -0.023084038720570868 0.0 -0.00824342616259908 -0.015060512030789114 0.0 0.20745866081538178 -0.03874693086508417 0.0 -0.017126592069485125 -0.014705802604198777 0.0 1.253288503004725 0.10618327723127632 0.0 -0.06732500669209038 -0.0011879772105917832 0.0 -0.01518511608457493 0.010705313608504663 0.0 -0.051965176243172914 1.0292670095662302e-05 0.0 0.05359280518581798 -0.021664108901726938 0.0 0.3369512247504896 0.024528621080307497 0.0 0.6875925281763198 -0.07019636008653517 0.0 0.5067036409483969 -0.059928266210269546 0.0 0.7866272472837 -0.06844051578614548 0.0 0.26391722119766514 -0.03855079999233751 0.0 0.8185984650146184 -0.08764644228223452 0.0 1.1662786582143563 -0.0910953547341297 0.0 1.0673166263037726 -0.08372310632684161 0.0 1.040586099726686 -0.07523614126597962 0.0 0.5913553391013069 -0.06954884767246985 0.0 0.5027057119653706 -0.06454893349063723 0.0 0.3897413739395156 -0.057352368204323996 0.0 0.3652047801764718 -0.05410037090687331 0.0 0.14327508884923518 -0.03309120948673481 0.0 0.7860249594944524 -0.08819930772798694 0.0 0.2593516527564802 0.014625725153256242 0.0 0.6065411806976267 0.03778428415077378 0.0 0.06668312547442923 0.005883881675100897 0.0 0.17120206071649252 0.01767066769886047 0.0 -0.07060770251259052 0.00014302076075170457 0.0 1.3327426354416347 -0.02442984390718516 0.0 1.2179497737401546 0.04112533943698404 0.0 1.3551587040761357 -0.012072824714107382 0.0 1.3266907045729004 -0.06319037845792365 0.0 0.16802263368558204 -0.03590530058191023 0.0 0.35586173761522966 -0.05449986142046541 0.0 0.5584198425676653 0.046695417072776656 0.0 0.0868510504960043 0.01537954008523155 0.0 1.308240052361078 0.004056427434387074 0.0 1.348227152989294 -0.03298093740158408 0.0 0.5173727607553268 0.06842807806284126 0.0 1.3270898220596106 -0.0766720769691265 0.0 0.588339015913562 0.04320463328271016 0.0 1.2824153133079186 0.07191243077323516 0.0 0.332391588814317 0.033463439432433455 0.0 0.703790229509512 0.06368751245576344 0.0 1.334738393430175 0.02413399824644395 0.0 1.2312357132018799 -0.024208426800100345 0.0 1.3177603610995454 -0.086680567322525 0.0 0.824675820692642 0.06130614051706137 0.0 1.047599463988206 0.07890989053062367 0.0 1.106830401983041 0.07230948455518565 0.0 1.2667356808323234 0.0985445015373058 0.0 1.1283828200153416 0.09728082998315525 0.0 0.974603311485039 0.08120887197838651 0.0 0.6684444115268443 0.06722381630969206 0.0 1.2733983462651437 -0.08991906007099347 0.0 0.0 0.0 0.0 1.3079832284018815 0.057804620940245126 0.0 0.9166569010572205 0.08950862911581058 0.0 0.32498690514734146 0.041788783747608936 0.0 1.3159189351806253 0.07161621276580109 0.0 0.899083252036138 0.08527641444524454 0.0 1.2706412120494925 0.09128642234463374 0.0 0.5977955329119052 0.06610848322419882 0.0 1.261789493795943 0.10366312127704085 0.0 0.548838889230572 0.0680108082263081 0.0 0.2555679458125742 0.04002511922019578 0.0 1.1464368510028509 0.10158968577840949 0.0 0.6610591934917562 0.0746338638219195 0.0 1.0721529861210484 0.10339599094145213 0.0 0.8442638120634549 0.09045625153273776 0.0 0.7753516677507801 0.08863738702768137 0.0 1.1954982650687405 0.08868065252723281 0.0 1.1159019176867022 0.09183178130578948 0.0 1.306235624521538 0.08189927339012258 0.0 0.15544331979475967 0.02861680483261869 0.0 1.152126386323995 0.0791475380334031 0.0 1.2162775928291387 0.10656119236471934 0.0 1.1570919713586731 0.10753374268118686 0.0 1.2333928761114448 0.10728106837179217 0.0 1.243493640660619 0.108326468730811 0.0 1.2911815669858477 0.08709827123802018 0.0 1.1832307882285995 0.06846288332088625 0.0 0.9446557291323482 0.10141931809459621 0.0 1.2291437173489304 0.09260998398937267 0.0 1.278990322609847 0.09073121868940513 0.0 1.0451326872496836 0.06529635382211633 0.0 1.1620844318231158 0.10963462655922991 0.0 1.0788797996536927 0.10813209431918178 0.0 1.0593731743452013 0.10617380923772102 0.0 1.2322161492851718 0.09693232411021015 0.0 0.0 0.0 0.0 0.6445056598722754 -0.00558371127026455 0.0 1.0778387739905215 0.4342503905606379 0.0 1.1669080602763922 0.4222613320145156 0.0 1.0822448367982251 -0.42677850361476183 0.0 0.8655995644233535 -0.2270230082085546 0.0 0.9788846556400401 -0.25551695117834333 0.0 0.8923682429754831 -0.0849900738266174 0.0 1.2228185835065597 -0.052290095644537585 0.0 1.0814311328251989 -0.06399891620877578 0.0 1.1987209008438113 -0.10445393143236449 0.0 1.265189748756578 -0.08455425804599143 0.0 1.3153673169284616 -0.053708049233875406 0.0 -0.08309496718413109 -0.002572967308024091 0.0 -0.05035283783224549 0.007671967630637822 0.0 0.0007136619119165361 0.01001946272431447 0.0 0.0006459466696257816 0.012048665278198735 0.0 0.1465923931057959 0.026824395650936445 0.0 -0.05705103994378709 0.008202226260176616 0.0 0.06112523649777897 0.02190896357897322 0.0 0.21663299101497743 0.03710525833652964 0.0 0.08477817545694745 0.038163031931559344 0.0 -0.03604238683781467 0.015030313434660006 0.0 1.0348390039659379 0.16077338142798445 0.0 -0.07032060158254826 0.004459591907964557 0.0 1.2548813105452936 -0.10053551932155336 0.0 1.1422351775693629 -0.09820611439558949 0.0 0.9510861997393664 -0.09246737166534406 0.0 1.1043993844909266 -0.10208731039572967 0.0 1.2398108331318323 -0.10634956211637246 0.0 0.9136451524209819 -0.09534184730517863 0.0 1.2473740082427551 -0.10658372125523338 0.0 1.0783432997384441 -0.10479091001408475 0.0 1.133505779699058 -0.10478978831246585 0.0 0.8644519193372564 -0.09464354393694245 0.0 0.9079994619620202 -0.09710424593766122 0.0 0.6269906108532537 -0.07759792944563534 0.0 1.1048748550524914 -0.10726654811592717 0.0 1.233576041545732 -0.1060914739237809 0.0 1.0695175672041501 -0.10501165674034288 0.0 1.168089096840438 -0.08577737843092276 0.0 1.193542595462665 -0.10833247166145245 0.0 0.6830011660224108 -0.08147004079168638 0.0 1.1415063491081145 -0.10545996522428867 0.0 0.9399899405319762 -0.09832538114168053 0.0 0.