<?xml version="1.0"?>
<VTKFile type="UnstructuredGrid"  version="0.1"  >
<UnstructuredGrid>
<Piece  NumberOfPoints="1289" NumberOfCells="2413">
<Points>
<DataArray  type="Float64"  NumberOfComponents="3"  format="ascii">0 0 0  0 0.41 0  2.2 0.41 0  2.2 0 0  0.1 0.1 0  0.1 0.3 0  0.8 0.3 0  0.8 0.1 0  0.25 0.2 0  0.248976 0.210065 0  0.245948 0.219718 0  0.241038 0.228563 0  0.234448 0.23624 0  0.226448 0.242432 0  0.217365 0.246888 0  0.207571 0.249423 0  0.197468 0.249936 0  0.187467 0.248404 0  0.17798 0.24489 0  0.169395 0.239539 0  0.162062 0.232569 0  0.156283 0.224265 0  0.152293 0.214968 0  0.150257 0.205058 0  0.150257 0.194942 0  0.152293 0.185032 0  0.156283 0.175735 0  0.162062 0.167431 0  0.169395 0.160461 0  0.17798 0.15511 0  0.187467 0.151596 0  0.197468 0.150064 0  0.207571 0.150577 0  0.217365 0.153112 0  0.226448 0.157568 0  0.234448 0.16376 0  0.241038 0.171437 0  0.245948 0.180282 0  0.248976 0.189935 0  1.1 0 0  1.1 0.41 0  0.1 0.2 0  0.45 0.1 0  0.45 0.3 0  0.55 0 0  0.275 0.1 0  0.275 0.3 0  0.275 0 0  0.55 0.41 0  0 0.205 0  0.825 0 0  0.825 0.41 0  0.275 0.41 0  0.1 0.15 0  0.1875 0.1 0  0.1 0.25 0  0.1875 0.3 0  0.132322 0.2 0  0.241426 0.253518 0  0.241426 0.146482 0  0.264574 0.17974 0  0.264574 0.22026 0  0.138434 0.187348 0  0.153372 0.150948 0  0.148413 0.164094 0  0.176495 0.136535 0  0.22768 0.143571 0  0.138434 0.212652 0  0.148413 0.235906 0  0.176495 0.263465 0  0.22768 0.256429 0  0.23125 0.3 0  0.24769 0.24094 0  0.23125 0.1 0  0.24769 0.15906 0  0.26253 0.193641 0  0.190482 0.137872 0  0.166753 0.146661 0  0.157737 0.244461 0  0.190482 0.262128 0  0.203107 0.261264 0  0.253635 0.22977 0  0.203107 0.138736 0  0.253635 0.17023 0  0.261028 0.206206 0  0.167707 0.251809 0  0.143629 0.224191 0  0.215302 0.2591 0  0.270465 0.245894 0  0.215302 0.1409 0  0.270465 0.154106 0  0.284052 0.202587 0  0.14375 0.3 0  0.209375 0.3 0  0.225966 0.278501 0  0.209375 0.1 0  0.225966 0.121499 0  0.211613 0.273759 0  0.211613 0.126241 0  0.143629 0.175809 0  0.1 0.175 0  0.133484 0.164832 0  0.144491 0.249539 0  0.1 0.225 0  0.133484 0.235168 0  0.3625 0.3 0  0.25691 0.253381 0  0.25691 0.146619 0  0.277205 0.188698 0  0.184724 0.275712 0  0.237372 0.268285 0  0.184724 0.124288 0  0.237372 0.131715 0  0.197578 0.273149 0  0.193656 0.286994 0  0.197578 0.126851 0  0.193656 0.113006 0  0.122953 0.187671 0  0.118362 0.153758 0  0.155372 0.258107 0  0.122953 0.212329 0  0.118362 0.246242 0  0.276394 0.27264 0  0.276394 0.12736 0  0.280965 0.170013 0  0.253125 0.3 0  0.14375 0.1 0  0.253125 0.1 0  0.269489 0.26014 0  0.269489 0.13986 0  0.303639 0.184297 0  0.165625 0.3 0  0.134742 0.273113 0  0.257831 0.274737 0  0.255279 0.128499 0  0.3625 0.1 0  0.165625 0.1 0  0.162031 0.132368 0  0.134955 0.126405 0  0.149334 0.125568 0  0.142936 0.139597 0  0.12695 0.140259 0  0.242514 0.285501 0  0.242514 0.114499 0  0.1 0.125 0  0.117483 0.12555 0  0.11154 0.139776 0  0.121875 0.1 0  0.109143 0.1125 0  0.126805 0.114 0  0.220313 0.29129 0  0.351562 0.287369 0  0.207222 0.2866 0  0.220312 0.10871 0  0.1375 0 0  0.20625 0 0  0.207222 0.1134 0  0.11722 0.17118 0  0.1 0.1625 0  0.0778409 0.16875 0  0.0862762 0.15625 0  0 0.15375 0  0 0.1025 0  0.11722 0.22882 0  0.1 0.2375 0  0 0.3075 0  0.0862762 0.23125 0  0.0598995 0.222547 0  0.0860223 0.2125 0  0.289584 0.181469 0  0.300267 0.16446 0  0.163832 0.269071 0  0.149597 0.273325 0  0.1 0.275 0  0.268498 0.285953 0  0.31875 0.3 0  0.294154 0.254672 0  0.296875 0.3 0  0.293558 0.271845 0  0.285095 0.286799 0  0.324298 0.264316 0  0.307866 0.263745 0  0.317093 0.234901 0  0.315485 0.281219 0  0.316547 0.250625 0  0.344693 0.243731 0  0.331592 0.251147 0  0.35129 0.270663 0  0.338689 0.263683 0  0.340625 0.3 0  0.249849 0.264383 0  0.265097 0.11422 0  0.284688 0.156136 0  0.242188 0.324017 0  0.0856613 0.2625 0  0.132812 0.0612217 0  0.264062 0.0612217 0  0.198437 0.07598340000000001 0  0.0860223 0.1375 0  0.0794526 0.191089 0  0.285228 0.140397 0  0.298655 0.148737 0  0.31875 0.1 0  0.327335 0.15374 0  0.296875 0.1 0  0.312289 0.155283 0  0.313348 0.135607 0  0.321802 0.173916 0  0.298433 0.134116 0  0.112124 0.2625 0  0.127526 0.259083 0  0.121875 0.3 0  0.0682687 0.241503 0  0.1 0.2875 0  0.117762 0.28125 0  0.107813 0.3 0  0.103906 0.313849 0  0.0778409 0.28125 0  0.1375 0.41 0  0.0862762 0.29375 0  0.08886860000000001 0.24375 0  0.307812 0.338778 0  0.307812 0.292227 0  0.33216 0.279164 0  0.387888 0.266414 0  0.264063 0.31948 0  0.110937 0.07598340000000001 0  0.242188 0.07598340000000001 0  0.319914 0.11839 0  0.340625 0.1 0  0.334448 0.133793 0  0.329687 0.108539 0  0.346259 0.118491 0  0.360334 0.173636 0  0.327539 0.205033 0  0.132812 0.288712 0  0.362436 0.278836 0  0.368105 0.259418 0  0.4125 0.41 0  0.329687 0.324017 0  0.329687 0.292306 0  0.285938 0.318952 0  0.417187 0.338778 0  0.324481 0.14148 0  0.351562 0.106771 0  0.40625 0.1 0  0.341028 0.168342 0  0.319221 0.190479 0  0.335292 0.184501 0  0.305563 0.20794 0  0.220313 0.31948 0  0.132812 0.332772 0  0.0865876 0.311259 0  0.0598995 0.302453 0  0.0906541 0.343255 0  0.353543 0.255837 0  0.36574 0.237633 0  0.405007 0.254279 0  0.275795 0.352123 0  0.4125 0 0  0.35493 0.137394 0  0.366563 0.120618 0  0.35917 0.205246 0  0.198438 0.318952 0  0.0626109 0.263892 0  0.40625 0.3 0  0.354809 0.155936 0  0.386512 0.146872 0  0.373101 0.159939 0  0.384375 0.1 0  0.343394 0.19929 0  0.350682 0.185683 0  0.368101 0.189748 0  0.344016 0.221511 0  0.391108 0.213329 0  0.376279 0.204783 0  0.398843 0.182768 0  0.375804 0.222746 0  0.390665 0.196958 0  0.394004 0.23518 0  0.359883 0.222828 0  0.419908 0.204359 0  0.404243 0.204783 0  0.412615 0.224526 0  0.20625 0.41 0  0.165625 0.325257 0  0.0347982 0.244954 0  0.379558 0.247154 0  0.34165 0.147603 0  0.372264 0.136992 0  0.388988 0.121989 0  0.373437 0.108554 0  0.351562 0.31948 0  0.391367 0.16527 0  0.399572 0.223324 0  0.452011 0.227371 0  0.40877 0.239392 0  0.431491 0.237337 0  0.421224 0.250459 0  0.449619 0.262098 0  0.418865 0.276779 0  0.437063 0.252274 0  0.415673 0.263227 0  0.430988 0.266772 0  0.402767 0.273419 0  0.452967 0.244883 0  0.428125 0.3 0  0.408502 0.286186 0  0.384375 0.3 0  0.392267 0.285807 0  0.465927 0.219339 0  0.43489 0.283846 0  0.376424 0.286289 0  0.625 0.3 0  0.473533 0.205186 0  0.461713 0.255517 0  0.5375 0.3 0  0.465725 0.235405 0  0.44631 0.201425 0  0.471875 0.3 0  0.494307 0.227729 0  0.459448 0.206736 0  0.462294 0.180792 0  0.478933 0.227536 0  0.486793 0.21381 0  0.486322 0.251373 0  0.50065 0.215318 0  0.54005 0.175389 0  0.474633 0.189893 0  0.512916 0.208697 0  0.49531 0.199967 0  0.475889 0.175275 0  0.625 0.1 0  0.459311 0.153933 0  0.513645 0.242704 0  0.392892 0.248539 0  0.374815 0.271913 0  0.365974 0.14871 0  0.395312 0.109184 0  0.417061 0.123981 0  0.483196 0.277003 0  0.381967 0.179632 0  0.429898 0.219374 0  0.433473 0.206165 0  0.43149 0.181038 0  0.444208 0.215487 0  0.472985 0.247309 0  0.49375 0.3 0  0.475579 0.262714 0  0.49916 0.274293 0  0.501175 0.184809 0  0.514164 0.225681 0  0.543648 0.214977 0  0.5341630000000001 0.23481 0  0.527396 0.216171 0  0.5375 0.1 0  0.534548 0.202315 0  0.561545 0.192513 0  0.5494289999999999 0.201221 0  0.570923 0.218346 0  0.412582 0.149833 0  0.489327 0.264745 0  0.502439 0.254775 0  0.462391 0.271166 0  0.496775 0.241732 0  0.5294410000000001 0.268606 0  0.482812 0.291099 0  0.46879 0.285038 0  0.452663 0.284065 0  0.51789 0.257882 0  0.53408 0.252026 0  0.560142 0.243543 0  0.545708 0.243474 0  0.547532 0.229019 0  0.55282 0.265323 0  0.398971 0.153424 0  0.400349 0.135684 0  0.410135 0.168145 0  0.428823 0.161323 0  0.415266 0.183779 0  0.329687 0.0810483 0  0.395312 0.0612217 0  0.373437 0.318952 0  0.439062 0.324017 0  0.561816 0.229354 0  0.585029 0.239287 0  0.431827 0.139854 0  0.446796 0.168929 0  0.351562 0.07598340000000001 0  0.395313 0.318944 0  0.54337 0.150762 0  0.460937 0.31948 0  0.418412 0.137529 0  0.428125 0.1 0  0.442783 0.152332 0  0.450742 0.134294 0  0.373437 0.0805201 0  0.384383 0.342558 0  0.482812 0.318952 0  0.429239 0.127457 0  0.444274 0.117405 0  0.426548 0.113815 0  0.49375 0.1 0  0.488954 0.113984 0  0.457973 0.121842 0  0.471621 0.137346 0  0.515625 0.325257 0  0.48125 0.41 0  0.417187 0.07598340000000001 0  0.496363 0.126778 0  0.479043 0.155715 0  0.439062 0.0805201 0  0.481795 0.126919 0  0.471875 0.1 0  0.489227 0.142159 0  0.515625 0.1 0  0.520062 0.147117 0  0.501244 0.161791 0  0.505431 0.112984 0  0.505344 0.14029 0  0.526563 0.119081 0  0.5181750000000001 0.131908 0  0.539868 0.136937 0  0.460937 0.108383 0  0.474242 0.114415 0  0.460937 0.0810483 0  0.487841 0.167168 0  0.526563 0.0612217 0  0.526563 0.106406 0  0.537619 0.112743 0  0.58125 0.1 0  0.559375 0.1 0  0.482812 0.08105569999999999 0  0.471883 0.0587655 0  0.570312 0.129396 0  0.548437 0.07598340000000001 0  0.504687 0.08105569999999999 0  0.49375 0.0470127 0  0.570312 0.112663 0  0.592798 0.12103 0  0.553986 0.12103 0  0.570312 0.0805201 0  0.48125 0 0  0.114787 0.2 0  0.160769 0.284765 0  0.175816 0.288361 0  0.162602 0.116048 0  0.154687 0.07598340000000001 0  0.176562 0.0805201 0  0.0598995 0.147547 0  0.307812 0.109924 0  0.291279 0.117157 0  0.278491 0.112989 0  0.285937 0.07598340000000001 0  0.307812 0.0805201 0  0.296928 0.196743 0  0.318141 0.218507 0  0.330208 0.227509 0  0.301397 0.225668 0  0.302706 0.241401 0  0.292574 0.21424 0  0.282762 0.230935 0  0.284351 0.244775 0  0.269553 0.23261 0  0.278572 0.217242 0  0.226924 0.342606 0  0.446928 0.185396 0  0.515625 0.3 0  0.504687 0.288879 0  0.515256 0.276534 0  0.529479 0.285328 0  0.58125 0.3 0  0.541969 0.272936 0  0.559375 0.3 0  0.556796 0.282529 0  0.543473 0.287206 0  0.581429 0.267774 0  0.566728 0.271171 0  0.570869 0.255585 0  0.577404 0.283865 0  0.603125 0.3 0  0.597531 0.28035 0  0.570312 0.338778 0  0.592188 0.292492 0  0.603513 0.256094 0  0.614063 0.286265 0  0.610329 0.27064 0  0.632708 0.251285 0  0.657223 0.261594 0  0.618789 0.257807 0  0.614188 0.22987 0  0.630935 0.265614 
[...]
<PointData  Vectors="v"> 
	<DataArray  type="Float64"  Name="v"  NumberOfComponents="3" format="ascii">
0.0 0.0 0.0 0.0 0.0 0.0 0.0 0.0 0.0 0.0 0.0 0.0 0.7962360921295759 -0.19599229299661317 0.0 0.8404019648730822 0.20775977860258732 0.0 1.1681161083568041 -0.059515109953714465 0.0 1.137087044515349 0.0558462793428186 0.0 0.0 0.0 0.0 0.0 0.0 0.0 0.0 0.0 0.0 0.0 0.0 0.0 0.0008625295625217433 0.0008074346971410789 0.0 0.0005179829134109056 0.0007616109970291387 0.0 0.0005411335627245134 0.0009494405510113023 0.0 0.0 0.0 0.0 0.0 0.0 0.0 0.0 0.0 0.0 0.0 0.0 0.0 0.0 0.0 0.0 0.0 0.0 0.0 0.0 0.0 0.0 0.0 0.0 0.0 0.0 0.0 0.0 0.0 0.0 0.0 0.0 0.0 0.0 0.0 0.0 0.0 0.0 0.0 0.0 0.0 0.0 0.0 0.0 0.0 0.0 0.0 0.0 0.0 0.0 0.0 0.0 0.0 0.0 0.0 0.00040521909342793126 -0.0007053754946203715 0.0 4.7605208147873506e-05 5.253921497801622e-05 0.0 0.0008336957752326547 -0.0007696854446142316 0.0 0.0 0.0 0.0 0.0 0.0 0.0 0.0 0.0 0.0 0.0 0.0 0.0 0.0 0.0 0.0 0.7613281465100387 -0.00130227309106302 0.0 1.2755481560270614 0.08291752161086843 0.0 1.266263962565676 -0.07739938484414155 0.0 0.0 0.0 0.0 1.3536348327855334 -0.13298569165009683 0.0 1.3581864483551132 0.15486940994754908 0.0 0.0 0.0 0.0 0.0 0.0 0.0 1.0 0.0 0.0 0.0 0.0 0.0 0.0 0.0 0.0 0.0 0.0 0.0 0.8425986901831474 -0.23190269391080515 0.0 1.1514078329157358 -0.34433249877348293 0.0 0.8637765149225024 0.22929145158112552 0.0 1.166271875401987 0.35410469157301633 0.0 0.42823479933159947 -0.003991680640298568 0.0 0.1651608169922674 0.06249649224822565 0.0 0.16967192792595823 -0.06089665764411094 0.0 -0.027420122784868738 -0.03830282356346748 0.0 -0.025853131609633418 0.036225475920463726 0.0 0.33438155980062384 -0.2798667027741463 0.0 0.8579015174729091 -0.6734765077723457 0.0 0.6400023214469956 -0.6881707036316831 0.0 1.2061495267568667 -0.6133072838369295 0.0 0.4156878928955204 -0.06902776916525459 0.0 0.3304427668642143 0.2687236903060095 0.0 0.6428207997763088 0.6693050643260189 0.0 1.1851334533591666 0.6153789799424053 0.0 0.4078699525096047 0.07159741622404107 0.0 1.3132406609044434 0.2609341973911211 0.0 0.32323888559508424 0.2518017322038335 0.0 1.3026451481526833 -0.2405118431410875 0.0 0.3141661587411581 -0.23936660212375283 0.0 -0.033425467067214325 -0.016955662655890952 0.0 1.1248817387090766 -0.39875997770926375 0.0 1.0932077151585962 -0.7243519724755518 0.0 0.852042422550091 0.770729147215114 0.0 1.131352301061365 0.3995495162075868 0.0 0.7593619421746993 0.1859978663677469 0.0 0.10874109501952456 0.051405556597424434 0.0 0.769324375052853 -0.18192477281457803 0.0 0.1111112182572366 -0.04984865137446947 0.0 -0.02949786732505004 0.019024652703471794 0.0 1.027494177654454 0.7188713903188864 0.0 0.44237224501008726 0.5291742834004265 0.0 0.45788356681327474 0.1777256290098941 0.0 0.27108811191379617 0.06899186199783552 0.0 0.4642061666771693 -0.17367191054538036 0.0 0.27671154242876955 -0.06461597024620865 0.0 -0.07498565982479902 0.002253105399766061 0.0 0.9654703503512443 0.31741126896576394 0.0 1.2605526721427627 0.3132200990402718 0.0 1.2450963566702844 0.2888812849160342 0.0 1.2348416085294593 -0.3076601095189257 0.0 1.2478364049276556 -0.28103387188372647 0.0 1.2201364750982295 0.331051471375468 0.0 1.226129671806939 -0.3226619245909478 0.0 0.442895685760632 -0.544591895045446 0.0 0.8020190138575599 -0.1396457530643931 0.0 0.6715157090541779 -0.41971793017043685 0.0 0.8773562122353835 0.5938325439458652 0.0 0.79930191083565 0.1427893024581087 0.0 0.676483604953861 0.4201331912220623 0.0 1.292738280061061 -0.007177156913208327 0.0 0.29307942791553826 0.14426650976009128 0.0 0.2944950785975849 -0.13430831362412238 0.0 -0.05423033999244984 -0.012955672105328631 0.0 1.2650514500298513 0.47182939425079806 0.0 0.7686963486475119 0.12091826864344642 0.0 1.2611229131714532 -0.47329596576996213 0.0 0.789087357318517 -0.11554610908486891 0.0 1.2755786296833111 0.41808379724464034 0.0 1.2539897042101162 0.4011514724980188 0.0 1.2715767582899837 -0.41424813996769644 0.0 1.2447018015445035 -0.3811237475036832 0.0 0.5835295309095351 -0.16054583520582516 0.0 0.7964380951320037 -0.33182358351954394 0.0 1.0104187859474991 0.6037952253452751 0.0 0.5917466313514952 0.15059062961344086 0.0 0.8125544132113024 0.33169165724075483 0.0 0.7458193570905729 0.08082656904586434 0.0 0.7825646262450385 -0.07301694226767405 0.0 0.05216914903241528 -0.022110205498681115 0.0 1.3634710280991054 0.20749155577792305 0.0 0.9298273445249343 -0.3222322305532378 0.0 1.3445598552517481 -0.19003198435584373 0.0 0.4091275028789247 0.09080776822526211 0.0 0.42694532078656333 -0.07819931431887067 0.0 -0.054473136222607244 -0.008200959295801613 0.0 1.0573522106332593 0.35401101045783984 0.0 0.9431507786761025 0.39147020710643665 0.0 0.922200094780357 0.11237779488219919 0.0 0.824234274439869 -0.08690536001942054 0.0 1.3068230829510048 0.016650540139416376 0.0 1.0275149496731875 -0.3451974511753226 0.0 1.0744930723359956 -0.5703337445634933 0.0 0.9301366623434417 -0.38940362465946554 0.0 0.997470238973985 -0.4386577179579812 0.0 0.9329346730610097 -0.542838835511927 0.0 0.8655352453073782 -0.4065109653952716 0.0 1.2733724708161054 0.23292711902376093 0.0 1.2715206848382663 -0.21958290358455373 0.0 0.8526587506914532 -0.23564041597360305 0.0 0.8790536481439241 -0.30996223811349666 0.0 0.8528986750800549 -0.2990562790918913 0.0 0.85141284994365 -0.2564072269732578 0.0 0.8542149467703825 -0.25278779656554173 0.0 0.8962771968445968 -0.3194738309215369 0.0 1.3292315988246763 0.31564145186515213 0.0 1.0845295195856428 -0.0024125750390118386 0.0 1.3145814586888012 0.3623931942352091 0.0 1.321347530189401 -0.29605597001341477 0.0 0.0 0.0 0.0 0.0 0.0 0.0 1.2994397233305277 -0.34947036947931553 0.0 0.7142460158889327 -0.26733144936674874 0.0 0.820393731798454 -0.21077730686538756 0.0 0.8711723361145336 -0.11076624843412446 0.0 0.862442633171482 -0.1637784467812225 0.0 0.9375 0.0 0.0 0.7500000000000001 0.0 0.0 0.7224698352801174 0.26529324362497825 0.0 0.8240341679307748 0.20013536539893642 0.0 0.7499999999999999 0.0 0.0 0.8697148089731824 0.12781391800893546 0.0 0.92871165109761 0.04282887124100623 0.0 0.848110777991312 0.04505781500560355 0.0 -0.03480123365719431 -0.011636080842738577 0.0 0.0913426665339784 -0.01761944842632943 0.0 1.1150052408974438 0.554782292018457 0.0 1.019005118389382 0.4731489440486235 0.0 0.8809683907412234 0.24547020738015338 0.0 1.2000564764703525 0.1390703038175806 0.0 1.328844481411454 0.05983751975950321 0.0 0.3517815029669049 0.037974685715745554 0.0 1.3561437496195818 0.10290601211318955 0.0 0.7138698286401699 0.05374747205652976 0.0 1.1711341545189202 0.10024137102588038 0.0 0.5144455766807235 0.015835094753120376 0.0 0.49606054163489294 0.030030344765885394 0.0 0.06967684740190566 0.013407792566852452 0.0 0.9566014862966274 0.034536807836360754 0.0 0.2569188760439895 0.02215395917429237 0.0 0.16312657015578552 0.008522454883766697 0.0 0.2674650383939224 0.01462385149338895 0.0 0.6665266169959254 -0.0048038752233994465 0.0 0.49819139973766724 0.007008942281167839 0.0 1.3157429332797421 0.019327433373057448 0.0 0.5424460545388495 0.06220868711876533 0.0 1.2302208229138396 -0.1419882317526745 0.0 0.2017942065819754 -0.03758179184307625 0.0 1.2058055377937469 0.17358283651323125 0.0 0.882821537756673 0.1797379596472421 0.0 0.7011251192749632 -0.1679574214994103 0.0 1.1155600809362456 -0.09421546441779646 0.0 1.0385461794237099 -0.22375572193135598 0.0 0.8637529476630876 -0.1826602505310604 0.0 0.8754193106282995 -0.025604288535729106 0.0 0.4392822580733829 -0.04804363107004673 0.0 0.2902519890153449 -0.03306651521180781 0.0 1.3289623659252732 -0.041887248865720185 0.0 0.20837151204676016 -0.013520802687524893 0.0 1.355433033849361 -0.08634877092934277 0.0 0.191336709795635 -0.019099908441573856 0.0 0.5354724807653853 -0.0156778223583215 0.0 -0.0015755452130140366 -0.011302075761339956 0.0 0.5721475282937917 -0.0314283193458674 0.0 0.8788871655823719 0.29715374460683774 0.0 0.8795548426026468 0.4107697992900068 0.0 0.8850897408856997 0.2703370541279555 0.0 0.9122180326266895 0.10984422868735938 0.0 0.8651758653845114 0.22329472495964015 0.0 0.9047233467462061 0.3037199730698775 0.0 0.8572343972814377 0.23352189815288757 0.0 0.8020242740713772 0.1833824231568901 0.0 0.8670530894067944 0.16152850701239016 0.0 0.0 0.0 0.0 0.8415164235149412 0.17669345173250794 0.0 0.8706535665950118 0.17101958107122162 0.0 1.2131453503479204 0.04977443935125159 0.0 1.2375705752923691 0.06497751052676219 0.0 0.8901715712907926 0.013237921291284089 0.0 0.5939048416086823 -0.025948086077470647 0.0 1.2798832014489105 0.14711010416376286 0.0 0.7176196646999342 -0.17372848654429893 0.0 1.1779985817067895 -0.16454031559348906 0.0 0.9986290453206561 -0.019796349322388787 0.0 1.3235794445051359 -0.007721263271028187 0.0 0.5854035870378599 -0.00013381235365883887 0.0 1.2204586885605793 -0.012599524173765957 0.0 0.9834688574736024 0.009221102103900055 0.0 -0.004569515500615284 -0.007103607618393441 0.0 -0.09613892786808749 0.0010533515189686741 0.0 0.9448527553739953 0.341230592938119 0.0 0.877718423283309 -0.018408005404385832 0.0 0.4273187590299155 -0.00816007596415225 0.0 0.0 0.0 0.0 1.3286812503388692 0.03751340330070299 0.0 1.2125849737029621 0.024968280864087398 0.0 1.3172620286630672 0.11461400139643287 0.0 1.2524564429201315 -0.04433788488884638 0.0 0.4134130351586973 -0.013801248811455754 0.0 1.2283319438015075 0.010510635136304753 0.0 1.291181810338096 0.056897345087077646 0.0 0.040984590112774354 -0.009902962251089728 0.0 -0.08245609219009954 -0.005257057287575394 0.0 -0.06765641883720167 -0.0075868021417926776 0.0 -0.08112555267111045 0.0029261450757295396 0.0 1.1858098453496033 0.21973824381130527 0.0 0.7774458336354212 0.19847657048396275 0.0 0.7779121140385099 0.15422783968246107 0.0 0.7857360426375317 0.10690291217675522 0.0 0.6205720844917076 0.11097866347310507 0.0 0.3527541813914662 0.0014508335861633335 0.0 0.09307607330776602 0.0038637011199367734 0.0 0.36451715644571786 -0.020596972592142285 0.0 1.0719835314122172 0.07674157845212147 0.0 0.0 0.0 0.0 0.5197849266989643 0.011386420157062569 0.0 0.9318700356846913 0.029208400890664777 0.0 -0.1094650823690405 0.0005014336555097585 0.0 1.0970082562555639 0.26704017003646735 0.0 0.900332324375281 0.11238981649861385 0.0 1.280332551570226 -0.04952839914704427 0.0 0.18664129752421169 -0.0037343796016001377 0.0 0.3587309005415097 0.017779095244512298 0.0 0.14298567189594458 8.071434732711326e-05 0.0 1.3029641174232616 0.03927428913497491 0.0 -0.10613513143184576 -0.0016851901737445782 0.0 -0.07754217492899272 -0.006637400528992603 0.0 -0.09782288698239017 -0.004657959008360699 0.0 -0.04367170287980678 0.00694951867624938 0.0 -0.09573077701985018 0.0009848889826410544 0.0 -0.11597549581427208 -4.1262421896616424e-05 0.0 -0.06694081315235768 -0.0021158203585458866 0.0 -0.04159718163046755 0.003390515055926554 0.0 -0.11980123280842837 -0.0021204873040970456 0.0 0.07494578090486763 -0.002032946218838648 0.0 -0.03900823558409409 0.005617792016517926 0.0 -0.12327101631149925 -0.0011628951805601991 0.0 -0.12192684424004567 -0.0008054559189392086 0.0 -0.024073791910985107 -0.002471508264702618 0.0 0.0 0.0 0.0 0.9464121301883781 0.25546134722476066 0.0 0.9513520551224082 0.040098240885615366 0.0 0.22450756468382582 -0.004426275312728997 0.0 0.3085026137974755 -0.004549936577958091 0.0 0.5442420321646144 0.02091487808579001 0.0 0.9122978751227501 0.0430058404940084 0.0 1.1920703375272763 0.03456997202446746 0.0 1.3537289665337637 0.014661045548436604 0.0 0.08796494022275199 0.0021559399611399757 0.0 -0.03619071902016265 4.104583167267105e-05 0.0 0.022247543039228986 -0.011644133885496889 0.0 0.135005770412183 -0.008781397880828254 0.0 0.12514022871821234 -0.013844836672576986 0.0 0.31505512640877864 -0.023317808225438864 0.0 0.5748273468944219 -0.05097862640413243 0.0 0.8592587517001438 -0.05249900117668094 0.0 0.3662993585131899 -0.03181543914653867 0.0 0.5548595727895781 -0.03590699547172361 0.0 0.6501706238846751 -0.047842792944077735 0.0 0.7699243188344349 -0.04113192597410312 0.0 0.25864328329783237 -0.028273902962469937 0.0 1.2728150433585104 -0.06466800066714762 0.0 1.058436852103006 -0.051891100118931305 0.0 1.2865201807251951 -0.02911675883329316 0.0 1.048912336243089 -0.03977179683600015 0.0 -0.043224998497584446 -0.008750657894948503 0.0 1.0269716661083648 -0.0670707737357127 0.0 1.0600593595124903 -0.030120896266065414 0.0 1.226823546975326 -0.10342363614257437 0.0 -0.10912571790336555 -0.0020984934004334684 0.0 0.4599283092344159 -0.045693213085386285 0.0 1.2513797049316935 -0.10547041696927963 0.0 0.13108221601989833 -0.02173076284534111 0.0 -0.12229380808813256 -0.0008272563225255947 0.0 1.261536445521104 -0.08738392747995172 0.0 0.06267574553260766 -0.020909223056764164 0.0 -0.11182952919149995 -0.0024726266854504593 0.0 -0.026532525254424982 0.010067456521161528 0.0 0.04518089065067986 -0.017589420314202815 0.0 -0.06810512705970025 -0.007852716776863899 0.0 0.41805451815395395 -0.04892495278371199 0.0 -0.04807655148966876 -0.0105288294435108 0.0 0.11191898879940716 0.030499531742055906 0.0 -0.08268371280593911 0.005806489651880386 0.0 -0.07326039192619027 -0.006024394803143051 0.0 -0.09987716104373211 0.0008648076245307751 0.0 0.039166703893835676 0.01728540958923826 0.0 1.2156302074498038 0.10258593996207852 0.0 0.3273864733645087 0.03744492518791784 0.0 0.30397789382875007 -0.04457525126199732 0.0 0.25536911902525217 -0.010217515519999476 0.0 0.7078933558659536 -0.02065050000893416 0.0 0.30604251495332435 0.0055437352062286515 0.0 1.1766273395735203 0.052985982710410974 0.0 0.8888564979161171 0.061003332930999146 0.0 0.9289527625214492 -0.08276656110974226 0.0 -0.047891105407363396 -0.004267989296133378 0.0 -0.05917364557538403 -0.003731820887234185 0.0 -0.11932723020879497 -0.0015317054510889988 0.0 -0.04592118952490702 0.004040833741997316 0.0 -0.07991892575693078 -0.0042253775022112455 0.0 0.325351531544595 -0.03853669592233782 0.0 1.258241932336503 -0.09349027458865232 0.0 0.6256924860003986 -0.061618796671614406 0.0 0.8933755876605565 -0.08581134893522896 0.0 -0.02926097560649874 0.013041027667811381 0.0 0.06029623573557416 -0.022685982733063475 0.0 -0.00804956939428765 -0.014580960169955685 0.0 0.2077403405389452 -0.038371162668847526 0.0 -0.01697967579119538 -0.014237326438610066 0.0 1.2530555285105407 0.10615783661477268 0.0 -0.06730361164943037 -0.0006872389480225828 0.0 -0.015350934915482835 0.011180697308442844 0.0 -0.051957259617813986 0.0005173903639695461 0.0 0.053954027339476913 -0.0212614476134147 0.0 0.33704612001975254 0.024588282941010595 0.0 0.6876315637695519 -0.07002387526221643 0.0 0.5068018948613547 -0.05969615681655929 0.0 0.7865948360257099 -0.06832151642472034 0.0 0.2640004735398388 -0.03827115667549478 0.0 0.8188446740550046 -0.08749754657558448 0.0 1.1663557535447777 -0.091013189707837 0.0 1.067337489806216 -0.08362975786036321 0.0 1.0405707719741015 -0.07515189304146126 0.0 0.5915341638249246 -0.06932464377305504 0.0 0.5029974127135383 -0.06429799920875486 0.0 0.39024718786456464 -0.05709530716240992 0.0 0.3655922568335688 -0.05379849714757143 0.0 0.14362482498314721 -0.032679708169959534 0.0 0.7864393693722699 -0.08808518251260268 0.0 0.2594418670944662 0.014667174197187402 0.0 0.6066403450289585 0.037829111838074005 0.0 0.06674176518472785 0.005943992373887656 0.0 0.17126967300633358 0.01776843544881703 0.0 -0.07058251857498488 0.0002172224678263847 0.0 1.3327267928932134 -0.024408875237931713 0.0 1.217911859912986 0.04114523834624268 0.0 1.3551831298416648 -0.01204438120182309 0.0 1.3267564939051852 -0.06315766266923727 0.0 0.1684685336150461 -0.035530369510573236 0.0 0.35657175439259337 -0.05433791948559593 0.0 0.5585144029550929 0.04678146807457242 0.0 0.08688338094993014 0.015532838763931802 0.0 1.3082182180239788 0.004075987088220195 0.0 1.348259082174729 -0.03295137799782003 0.0 0.5170220252422998 0.0686767425876854 0.0 1.3271690590462752 -0.0766380711451476 0.0 0.5884368909996985 0.04327177375356957 0.0 1.2824083205874905 0.07196307974199244 0.0 0.3324656954573854 0.03358536385333833 0.0 0.7038605289348356 0.06380039082471194 0.0 1.3347154001993422 0.02415673844023091 0.0 1.2312770382321863 -0.024187968963267453 0.0 1.3178667176781618 -0.08665538631455622 0.0 0.8247550009241212 0.061381536989903646 0.0 1.047632627222344 0.0789915849216659 0.0 1.1068712191846066 0.07237293663185392 0.0 1.266616475151751 0.09859842041538812 0.0 1.1283051314914996 0.0973782120168851 0.0 0.9746302604721833 0.0813122088484012 0.0 0.6684775300147127 0.06737792127688952 0.0 1.2735407230557936 -0.08993298427216201 0.0 0.0 0.0 0.0 1.3079379028467546 0.05783541989423484 0.0 0.9165874995507549 0.08965026265224389 0.0 0.32497974756938913 0.042013356339024616 0.0 1.3158651744322836 0.07165527905211498 0.0 0.8990650485717571 0.08541384364323563 0.0 1.2705711186860011 0.09134947401403429 0.0 0.597772128345241 0.06630648283950512 0.0 1.2616114624064128 0.10368588718629393 0.0 0.5486549066112203 0.06825730187615507 0.0 0.25546959293771565 0.0403314114723287 0.0 1.146297999139037 0.10167430761473191 0.0 0.6609643437349195 0.07483920798749932 0.0 1.0719325323719955 0.10347308005889895 0.0 0.844097928571499 0.09061247928819473 0.0 0.7750454118296697 0.08878234197590525 0.0 1.1954721626237046 0.08876090656489351 0.0 1.1158667252382424 0.09192889944688683 0.0 1.3061585204147919 0.08193946989008888 0.0 0.1553923923526986 0.02890572261882799 0.0 1.152012828006398 0.07911136558867761 0.0 1.21606233215118 0.10658685477844422 0.0 1.1568229816092093 0.10755147501175097 0.0 1.2330830615766122 0.10710068664956873 0.0 1.2432076679138329 0.10823118620182876 0.0 1.2910742625741618 0.08712842454456331 0.0 1.183146749052888 0.06847482675707268 0.0 0.9441565375746495 0.10139293814436043 0.0 1.22898655771361 0.09252740609222772 0.0 1.2788576434895966 0.09073910483614321 0.0 1.0450356869501627 0.0652928571470317 0.0 1.1616912531764405 0.10952308337358702 0.0 1.0783324633727371 0.10793427404017837 0.0 1.0590063042906686 0.10617628969074236 0.0 1.2320400294141645 0.09678439870677157 0.0 0.0 0.0 0.0 0.6445054221506742 -0.005605343280297993 0.0 1.0778223692425526 0.4342420223838546 0.0 1.1668882916030654 0.42225675224948717 0.0 1.0822620898901725 -0.42678744437278804 0.0 0.8656119687857461 -0.2270265731917636 0.0 0.9788999844433431 -0.2555171235362067 0.0 0.8923700137574232 -0.0850005649193566 0.0 1.2228658602590263 -0.05227227151681381 0.0 1.081492220481588 -0.06398212946424157 0.0 1.1987649047229685 -0.10443112459598773 0.0 1.2651822754258228 -0.08453234014894448 0.0 1.3153527622654837 -0.05368573775058089 0.0 -0.08308869079061287 -0.002618654162237027 0.0 -0.05036194126308628 0.007641949265676397 0.0 0.0006927715576047301 0.010004391684204045 0.0 0.0006387122473661724 0.01200281045875566 0.0 0.14659335308574453 0.026797399795381108 0.0 -0.057059240552231 0.008150802514105862 0.0 0.06113637082204312 0.021852966990966897 0.0 0.21669029904094533 0.037077844114702246 0.0 0.08481482178842917 0.038129995710378506 0.0 -0.03605720630995971 0.01497435449720075 0.0 1.0348320383493868 0.1607856508944936 0.0 -0.07031111549491664 0.004629799461143503 0.0 1.2550637861048672 -0.10051048795675012 0.0 1.1423759535502944 -0.09812684923120699 0.0 0.9512567201980446 -0.09234934159730923 0.0 1.104643811613263 -0.1020301595433544 0.0 1.240143518936104 -0.10651938071565457 0.0 0.9139700170114357 -0.09524823407909488 0.0 1.2476777431482025 -0.10667323358134471 0.0 1.078727682504619 -0.10480696362160205 0.0 1.1338111003138218 -0.10478269341309417 0.0 0.8650688947038553 -0.09469562812479643 0.0 0.9084915942328663 -0.09709814979793203 0.0 0.627578404420383 -0.07748665312408752 0.0 1.1053460281779053 -0.10737636178708561 0.0 1.2339181600704048 -0.10634844557614646 0.0 1.0701018913093676 -0.10521930751678553 0.0 1.1681876205100297 -0.08589307211832382 0.0 1.1939696510105526 -0.10854581951368975 0.0 0.6838540873680696 -0.08158946672688945 0.0 1.142034049437366 -0.10577345119108704 0.0 0.9407419812645923 -