<?xml version="1.0"?>
<VTKFile type="UnstructuredGrid"  version="0.1"  >
<UnstructuredGrid>
<Piece  NumberOfPoints="1289" NumberOfCells="2413">
<Points>
<DataArray  type="Float64"  NumberOfComponents="3"  format="ascii">0 0 0  0 0.41 0  2.2 0.41 0  2.2 0 0  0.1 0.1 0  0.1 0.3 0  0.8 0.3 0  0.8 0.1 0  0.25 0.2 0  0.248976 0.210065 0  0.245948 0.219718 0  0.241038 0.228563 0  0.234448 0.23624 0  0.226448 0.242432 0  0.217365 0.246888 0  0.207571 0.249423 0  0.197468 0.249936 0  0.187467 0.248404 0  0.17798 0.24489 0  0.169395 0.239539 0  0.162062 0.232569 0  0.156283 0.224265 0  0.152293 0.214968 0  0.150257 0.205058 0  0.150257 0.194942 0  0.152293 0.185032 0  0.156283 0.175735 0  0.162062 0.167431 0  0.169395 0.160461 0  0.17798 0.15511 0  0.187467 0.151596 0  0.197468 0.150064 0  0.207571 0.150577 0  0.217365 0.153112 0  0.226448 0.157568 0  0.234448 0.16376 0  0.241038 0.171437 0  0.245948 0.180282 0  0.248976 0.189935 0  1.1 0 0  1.1 0.41 0  0.1 0.2 0  0.45 0.1 0  0.45 0.3 0  0.55 0 0  0.275 0.1 0  0.275 0.3 0  0.275 0 0  0.55 0.41 0  0 0.205 0  0.825 0 0  0.825 0.41 0  0.275 0.41 0  0.1 0.15 0  0.1875 0.1 0  0.1 0.25 0  0.1875 0.3 0  0.132322 0.2 0  0.241426 0.253518 0  0.241426 0.146482 0  0.264574 0.17974 0  0.264574 0.22026 0  0.138434 0.187348 0  0.153372 0.150948 0  0.148413 0.164094 0  0.176495 0.136535 0  0.22768 0.143571 0  0.138434 0.212652 0  0.148413 0.235906 0  0.176495 0.263465 0  0.22768 0.256429 0  0.23125 0.3 0  0.24769 0.24094 0  0.23125 0.1 0  0.24769 0.15906 0  0.26253 0.193641 0  0.190482 0.137872 0  0.166753 0.146661 0  0.157737 0.244461 0  0.190482 0.262128 0  0.203107 0.261264 0  0.253635 0.22977 0  0.203107 0.138736 0  0.253635 0.17023 0  0.261028 0.206206 0  0.167707 0.251809 0  0.143629 0.224191 0  0.215302 0.2591 0  0.270465 0.245894 0  0.215302 0.1409 0  0.270465 0.154106 0  0.284052 0.202587 0  0.14375 0.3 0  0.209375 0.3 0  0.225966 0.278501 0  0.209375 0.1 0  0.225966 0.121499 0  0.211613 0.273759 0  0.211613 0.126241 0  0.143629 0.175809 0  0.1 0.175 0  0.133484 0.164832 0  0.144491 0.249539 0  0.1 0.225 0  0.133484 0.235168 0  0.3625 0.3 0  0.25691 0.253381 0  0.25691 0.146619 0  0.277205 0.188698 0  0.184724 0.275712 0  0.237372 0.268285 0  0.184724 0.124288 0  0.237372 0.131715 0  0.197578 0.273149 0  0.193656 0.286994 0  0.197578 0.126851 0  0.193656 0.113006 0  0.122953 0.187671 0  0.118362 0.153758 0  0.155372 0.258107 0  0.122953 0.212329 0  0.118362 0.246242 0  0.276394 0.27264 0  0.276394 0.12736 0  0.280965 0.170013 0  0.253125 0.3 0  0.14375 0.1 0  0.253125 0.1 0  0.269489 0.26014 0  0.269489 0.13986 0  0.303639 0.184297 0  0.165625 0.3 0  0.134742 0.273113 0  0.257831 0.274737 0  0.255279 0.128499 0  0.3625 0.1 0  0.165625 0.1 0  0.162031 0.132368 0  0.134955 0.126405 0  0.149334 0.125568 0  0.142936 0.139597 0  0.12695 0.140259 0  0.242514 0.285501 0  0.242514 0.114499 0  0.1 0.125 0  0.117483 0.12555 0  0.11154 0.139776 0  0.121875 0.1 0  0.109143 0.1125 0  0.126805 0.114 0  0.220313 0.29129 0  0.351562 0.287369 0  0.207222 0.2866 0  0.220312 0.10871 0  0.1375 0 0  0.20625 0 0  0.207222 0.1134 0  0.11722 0.17118 0  0.1 0.1625 0  0.0778409 0.16875 0  0.0862762 0.15625 0  0 0.15375 0  0 0.1025 0  0.11722 0.22882 0  0.1 0.2375 0  0 0.3075 0  0.0862762 0.23125 0  0.0598995 0.222547 0  0.0860223 0.2125 0  0.289584 0.181469 0  0.300267 0.16446 0  0.163832 0.269071 0  0.149597 0.273325 0  0.1 0.275 0  0.268498 0.285953 0  0.31875 0.3 0  0.294154 0.254672 0  0.296875 0.3 0  0.293558 0.271845 0  0.285095 0.286799 0  0.324298 0.264316 0  0.307866 0.263745 0  0.317093 0.234901 0  0.315485 0.281219 0  0.316547 0.250625 0  0.344693 0.243731 0  0.331592 0.251147 0  0.35129 0.270663 0  0.338689 0.263683 0  0.340625 0.3 0  0.249849 0.264383 0  0.265097 0.11422 0  0.284688 0.156136 0  0.242188 0.324017 0  0.0856613 0.2625 0  0.132812 0.0612217 0  0.264062 0.0612217 0  0.198437 0.07598340000000001 0  0.0860223 0.1375 0  0.0794526 0.191089 0  0.285228 0.140397 0  0.298655 0.148737 0  0.31875 0.1 0  0.327335 0.15374 0  0.296875 0.1 0  0.312289 0.155283 0  0.313348 0.135607 0  0.321802 0.173916 0  0.298433 0.134116 0  0.112124 0.2625 0  0.127526 0.259083 0  0.121875 0.3 0  0.0682687 0.241503 0  0.1 0.2875 0  0.117762 0.28125 0  0.107813 0.3 0  0.103906 0.313849 0  0.0778409 0.28125 0  0.1375 0.41 0  0.0862762 0.29375 0  0.08886860000000001 0.24375 0  0.307812 0.338778 0  0.307812 0.292227 0  0.33216 0.279164 0  0.387888 0.266414 0  0.264063 0.31948 0  0.110937 0.07598340000000001 0  0.242188 0.07598340000000001 0  0.319914 0.11839 0  0.340625 0.1 0  0.334448 0.133793 0  0.329687 0.108539 0  0.346259 0.118491 0  0.360334 0.173636 0  0.327539 0.205033 0  0.132812 0.288712 0  0.362436 0.278836 0  0.368105 0.259418 0  0.4125 0.41 0  0.329687 0.324017 0  0.329687 0.292306 0  0.285938 0.318952 0  0.417187 0.338778 0  0.324481 0.14148 0  0.351562 0.106771 0  0.40625 0.1 0  0.341028 0.168342 0  0.319221 0.190479 0  0.335292 0.184501 0  0.305563 0.20794 0  0.220313 0.31948 0  0.132812 0.332772 0  0.0865876 0.311259 0  0.0598995 0.302453 0  0.0906541 0.343255 0  0.353543 0.255837 0  0.36574 0.237633 0  0.405007 0.254279 0  0.275795 0.352123 0  0.4125 0 0  0.35493 0.137394 0  0.366563 0.120618 0  0.35917 0.205246 0  0.198438 0.318952 0  0.0626109 0.263892 0  0.40625 0.3 0  0.354809 0.155936 0  0.386512 0.146872 0  0.373101 0.159939 0  0.384375 0.1 0  0.343394 0.19929 0  0.350682 0.185683 0  0.368101 0.189748 0  0.344016 0.221511 0  0.391108 0.213329 0  0.376279 0.204783 0  0.398843 0.182768 0  0.375804 0.222746 0  0.390665 0.196958 0  0.394004 0.23518 0  0.359883 0.222828 0  0.419908 0.204359 0  0.404243 0.204783 0  0.412615 0.224526 0  0.20625 0.41 0  0.165625 0.325257 0  0.0347982 0.244954 0  0.379558 0.247154 0  0.34165 0.147603 0  0.372264 0.136992 0  0.388988 0.121989 0  0.373437 0.108554 0  0.351562 0.31948 0  0.391367 0.16527 0  0.399572 0.223324 0  0.452011 0.227371 0  0.40877 0.239392 0  0.431491 0.237337 0  0.421224 0.250459 0  0.449619 0.262098 0  0.418865 0.276779 0  0.437063 0.252274 0  0.415673 0.263227 0  0.430988 0.266772 0  0.402767 0.273419 0  0.452967 0.244883 0  0.428125 0.3 0  0.408502 0.286186 0  0.384375 0.3 0  0.392267 0.285807 0  0.465927 0.219339 0  0.43489 0.283846 0  0.376424 0.286289 0  0.625 0.3 0  0.473533 0.205186 0  0.461713 0.255517 0  0.5375 0.3 0  0.465725 0.235405 0  0.44631 0.201425 0  0.471875 0.3 0  0.494307 0.227729 0  0.459448 0.206736 0  0.462294 0.180792 0  0.478933 0.227536 0  0.486793 0.21381 0  0.486322 0.251373 0  0.50065 0.215318 0  0.54005 0.175389 0  0.474633 0.189893 0  0.512916 0.208697 0  0.49531 0.199967 0  0.475889 0.175275 0  0.625 0.1 0  0.459311 0.153933 0  0.513645 0.242704 0  0.392892 0.248539 0  0.374815 0.271913 0  0.365974 0.14871 0  0.395312 0.109184 0  0.417061 0.123981 0  0.483196 0.277003 0  0.381967 0.179632 0  0.429898 0.219374 0  0.433473 0.206165 0  0.43149 0.181038 0  0.444208 0.215487 0  0.472985 0.247309 0  0.49375 0.3 0  0.475579 0.262714 0  0.49916 0.274293 0  0.501175 0.184809 0  0.514164 0.225681 0  0.543648 0.214977 0  0.5341630000000001 0.23481 0  0.527396 0.216171 0  0.5375 0.1 0  0.534548 0.202315 0  0.561545 0.192513 0  0.5494289999999999 0.201221 0  0.570923 0.218346 0  0.412582 0.149833 0  0.489327 0.264745 0  0.502439 0.254775 0  0.462391 0.271166 0  0.496775 0.241732 0  0.5294410000000001 0.268606 0  0.482812 0.291099 0  0.46879 0.285038 0  0.452663 0.284065 0  0.51789 0.257882 0  0.53408 0.252026 0  0.560142 0.243543 0  0.545708 0.243474 0  0.547532 0.229019 0  0.55282 0.265323 0  0.398971 0.153424 0  0.400349 0.135684 0  0.410135 0.168145 0  0.428823 0.161323 0  0.415266 0.183779 0  0.329687 0.0810483 0  0.395312 0.0612217 0  0.373437 0.318952 0  0.439062 0.324017 0  0.561816 0.229354 0  0.585029 0.239287 0  0.431827 0.139854 0  0.446796 0.168929 0  0.351562 0.07598340000000001 0  0.395313 0.318944 0  0.54337 0.150762 0  0.460937 0.31948 0  0.418412 0.137529 0  0.428125 0.1 0  0.442783 0.152332 0  0.450742 0.134294 0  0.373437 0.0805201 0  0.384383 0.342558 0  0.482812 0.318952 0  0.429239 0.127457 0  0.444274 0.117405 0  0.426548 0.113815 0  0.49375 0.1 0  0.488954 0.113984 0  0.457973 0.121842 0  0.471621 0.137346 0  0.515625 0.325257 0  0.48125 0.41 0  0.417187 0.07598340000000001 0  0.496363 0.126778 0  0.479043 0.155715 0  0.439062 0.0805201 0  0.481795 0.126919 0  0.471875 0.1 0  0.489227 0.142159 0  0.515625 0.1 0  0.520062 0.147117 0  0.501244 0.161791 0  0.505431 0.112984 0  0.505344 0.14029 0  0.526563 0.119081 0  0.5181750000000001 0.131908 0  0.539868 0.136937 0  0.460937 0.108383 0  0.474242 0.114415 0  0.460937 0.0810483 0  0.487841 0.167168 0  0.526563 0.0612217 0  0.526563 0.106406 0  0.537619 0.112743 0  0.58125 0.1 0  0.559375 0.1 0  0.482812 0.08105569999999999 0  0.471883 0.0587655 0  0.570312 0.129396 0  0.548437 0.07598340000000001 0  0.504687 0.08105569999999999 0  0.49375 0.0470127 0  0.570312 0.112663 0  0.592798 0.12103 0  0.553986 0.12103 0  0.570312 0.0805201 0  0.48125 0 0  0.114787 0.2 0  0.160769 0.284765 0  0.175816 0.288361 0  0.162602 0.116048 0  0.154687 0.07598340000000001 0  0.176562 0.0805201 0  0.0598995 0.147547 0  0.307812 0.109924 0  0.291279 0.117157 0  0.278491 0.112989 0  0.285937 0.07598340000000001 0  0.307812 0.0805201 0  0.296928 0.196743 0  0.318141 0.218507 0  0.330208 0.227509 0  0.301397 0.225668 0  0.302706 0.241401 0  0.292574 0.21424 0  0.282762 0.230935 0  0.284351 0.244775 0  0.269553 0.23261 0  0.278572 0.217242 0  0.226924 0.342606 0  0.446928 0.185396 0  0.515625 0.3 0  0.504687 0.288879 0  0.515256 0.276534 0  0.529479 0.285328 0  0.58125 0.3 0  0.541969 0.272936 0  0.559375 0.3 0  0.556796 0.282529 0  0.543473 0.287206 0  0.581429 0.267774 0  0.566728 0.271171 0  0.570869 0.255585 0  0.577404 0.283865 0  0.603125 0.3 0  0.597531 0.28035 0  0.570312 0.338778 0  0.592188 0.292492 0  0.603513 0.256094 0  0.614063 0.286265 0  0.610329 0.27064 0  0.632708 0.251285 0  0.657223 0.261594 0  0.618789 0.257807 0  0.614188 0.22987 0  0.630935 0.265614 
[...]
<PointData  Vectors="v"> 
	<DataArray  type="Float64"  Name="v"  NumberOfComponents="3" format="ascii">
0.0 0.0 0.0 0.0 0.0 0.0 0.0 0.0 0.0 0.0 0.0 0.0 0.7962317757392987 -0.1959836897026765 0.0 0.8404064881006101 0.20776852253367037 0.0 1.1687268303189717 -0.059690345305930294 0.0 1.1364625744943078 0.055599339001776514 0.0 0.0 0.0 0.0 0.0 0.0 0.0 0.0 0.0 0.0 0.0 0.0 0.0 0.0008515037866834755 0.0007880315747090935 0.0 4.203145316093326e-05 -6.284724143405682e-05 0.0 0.00040312263886456857 0.00071052733132983 0.0 0.0 0.0 0.0 0.0 0.0 0.0 0.0 0.0 0.0 0.0 0.0 0.0 0.0 0.0 0.0 0.0 0.0 0.0 0.0 0.0 0.0 0.0 0.0 0.0 0.0 0.0 0.0 0.0 0.0 0.0 0.0 0.0 0.0 0.0 0.0 0.0 0.0 0.0 0.0 0.0 0.0 0.0 0.0 0.0 0.0 0.0 0.0 0.0 0.0 0.0 0.0 0.0 0.0 0.0 0.0005626091480495982 -0.0009778472698331766 0.0 0.0005904503323735219 -0.0008878072563466731 0.0 0.0008461372623883635 -0.0007917097731710551 0.0 0.0 0.0 0.0 0.0 0.0 0.0 0.0 0.0 0.0 0.0 0.0 0.0 0.0 0.0 0.0 0.7613282834577777 -0.0012861456920638561 0.0 1.2755121141867556 0.08285566262503188 0.0 1.2663067539426727 -0.07745911846693175 0.0 0.0 0.0 0.0 1.353626569952307 -0.1330086096278383 0.0 1.3581981386637498 0.15485335835906427 0.0 0.0 0.0 0.0 0.0 0.0 0.0 1.0 0.0 0.0 0.0 0.0 0.0 0.0 0.0 0.0 0.0 0.0 0.0 0.8425946962990277 -0.2318890411198628 0.0 1.1513895859259502 -0.34432355801354725 0.0 0.8637804070095646 0.22930496671023423 0.0 1.1662891529135333 0.3541136845210379 0.0 0.42823512232965283 -0.003970974608887781 0.0 0.16483998701786945 0.062389448021657586 0.0 0.17003041541811864 -0.061034590024584355 0.0 -0.02740933898917115 -0.03827648905963945 0.0 -0.025854633199534773 0.03624838941283124 0.0 0.33437803027332447 -0.27984397160250557 0.0 0.8578911337130919 -0.6734592332787028 0.0 0.6399929598172183 -0.6881512544361361 0.0 1.2061383033873603 -0.613293372282568 0.0 0.4153360193153022 -0.06923701572419455 0.0 0.3304466016639931 0.2687465595687607 0.0 0.6428301456835798 0.6693249935018671 0.0 1.18514434764986 0.6153924922328996 0.0 0.40816554367511926 0.07141165767605404 0.0 1.3132626788671014 0.2609114384411083 0.0 0.32318920850620914 0.25192750095089944 0.0 1.302622214280273 -0.24053908432772975 0.0 0.3141155444968424 -0.23915036090029976 0.0 -0.0334230298210798 -0.016928635188187473 0.0 1.1248853594254928 -0.3987505745666116 0.0 1.0931960761873099 -0.7243381222970635 0.0 0.8520539679944823 0.7707459276568188 0.0 1.1313507339698317 0.39955849946435856 0.0 0.759344059757787 0.1860228023196768 0.0 0.1087170006635493 0.05142288679164508 0.0 0.7693440542646266 -0.1818973525334102 0.0 0.11111691795200529 -0.049815188188372946 0.0 -0.029493137412705258 0.0190465819843607 0.0 1.0275044777171831 0.7188839502766382 0.0 0.44238066135718945 0.5291964784245718 0.0 0.4580300821507114 0.17789758067290412 0.0 0.2709884534128614 0.06899217394893842 0.0 0.46403842541007717 -0.17347490931151116 0.0 0.27673560739655695 -0.06460828199228937 0.0 -0.07498110493463175 0.002300977400169741 0.0 0.965479832163684 0.31742145127563653 0.0 1.2605773508098965 0.31322516253480154 0.0 1.24515237983932 0.28888866833435445 0.0 1.2348156977346252 -0.3076546379229167 0.0 1.2477726557921376 -0.28102956127407863 0.0 1.2201659000627305 0.33107822885908644 0.0 1.2260968396774288 -0.32263275354129345 0.0 0.4428873291776928 -0.5445697967798249 0.0 0.8020165105453113 -0.1396298284710686 0.0 0.6715089732152153 -0.4196971948830029 0.0 0.8773661145119932 0.5938495974388537 0.0 0.7993046155589395 0.14280505365571589 0.0 0.6764906202149028 0.4201539136395672 0.0 1.2927864425713638 -0.007197571950474922 0.0 0.2930025453893368 0.14429420860165507 0.0 0.29454504710512613 -0.13425652463852497 0.0 -0.054231286289159346 -0.012914574743767174 0.0 1.2650645787339416 0.47184536371786123 0.0 0.768742575719646 0.12086659310051981 0.0 1.2611093586297533 -0.47327945781435493 0.0 0.7890285625006169 -0.11561044092961416 0.0 1.2755962540882064 0.41810574404472783 0.0 1.2540101412603835 0.4011646917367553 0.0 1.2715579744791714 -0.41422425476925107 0.0 1.2446799998776819 -0.3811098953262787 0.0 0.5835267392566484 -0.1605252668993604 0.0 0.7964325578983822 -0.3318069448314145 0.0 1.0104300934985546 0.6038104296391891 0.0 0.5917494703327661 0.15061121923946352 0.0 0.8125600211148534 0.33170821666697675 0.0 0.7458414113250991 0.08082542703087398 0.0 0.782550657328821 -0.07301025736625039 0.0 0.0521764942359966 -0.0220799354825697 0.0 1.3634970787130276 0.2074758093863322 0.0 0.9298178957873964 -0.3222212676916378 0.0 1.3445367582788204 -0.19004921277044906 0.0 0.4090704555116599 0.090814215992187 0.0 0.42696982858710397 -0.07818173061735005 0.0 -0.05448355836036518 -0.008150641511425616 0.0 1.0573646173206361 0.3540210994151203 0.0 0.9431590554996828 0.39148361713901153 0.0 0.9222611047990007 0.11235063122796861 0.0 0.8241768221702874 -0.0869389986518898 0.0 1.3067840926427023 0.01663802729365024 0.0 1.0275018007321113 -0.3451871856198222 0.0 1.0744818771402913 -0.570319421517559 0.0 0.9301281307143561 -0.38938996272161064 0.0 0.9974599697717665 -0.4386441307884117 0.0 0.9329249086333571 -0.5428229100630839 0.0 0.8655280711294454 -0.4064954662631977 0.0 1.2733687216594802 0.2329121368278435 0.0 1.2715289780957313 -0.21960644095513251 0.0 0.8526542366915039 -0.235629208781994 0.0 0.8790471485880554 -0.30994959689944085 0.0 0.8528931546676154 -0.29904256808471485 0.0 0.8514057695627804 -0.2563973481736074 0.0 0.8542092636626868 -0.25277720306699586 0.0 0.8962696544080945 -0.3194619789709615 0.0 1.3292686372834646 0.31564580085869187 0.0 1.0846064649282599 -0.0024257485190279228 0.0 1.3146094494063438 0.36240391029870644 0.0 1.3213069071720491 -0.2960534299311689 0.0 0.0 0.0 0.0 0.0 0.0 0.0 1.2994095779899877 -0.34945969271755983 0.0 0.714242118132824 -0.26731323563707526 0.0 0.8203902746988186 -0.2107626922114154 0.0 0.8711707633169562 -0.11075460866872007 0.0 0.8624401745614747 -0.16376640058287784 0.0 0.9375 0.0 0.0 0.7500000000000001 0.0 0.0 0.7224737462740412 0.2653113608566567 0.0 0.8240376047664538 0.20015000496242724 0.0 0.7499999999999999 0.0 0.0 0.8697169598050626 0.12782693467298215 0.0 0.9287124991446726 0.04283721522419762 0.0 0.848111376483426 0.04507136610295918 0.0 -0.03480747532834878 -0.011589319172086967 0.0 0.09133446930798186 -0.017582001939208645 0.0 1.115016895939221 0.5547966045495322 0.0 1.0190155424761613 0.4731626028462481 0.0 0.8809728175622271 0.245481462862979 0.0 1.200093893742878 0.1390576762814772 0.0 1.3288761934126943 0.05982384367323331 0.0 0.35175181525106386 0.03798437272640309 0.0 1.3561727209043817 0.10289219783992935 0.0 0.7139084774591874 0.053746224472038265 0.0 1.1711808953745266 0.10023147455549136 0.0 0.5144781887261299 0.015839953717815825 0.0 0.4960702237271924 0.030034119325161382 0.0 0.06967882399174621 0.013453183473113993 0.0 0.9566649926940742 0.03452972271817224 0.0 0.2569164801908019 0.02217882151755175 0.0 0.16315848886265016 0.008551260563842096 0.0 0.267485394221749 0.014646375534739705 0.0 0.6665980186928087 -0.004807993863661475 0.0 0.49823710715302283 0.007013708378493027 0.0 1.3157868818176226 0.019310769175842554 0.0 0.5424631019518287 0.062162481678716866 0.0 1.230169773060701 -0.1420057021192978 0.0 0.2018085387075039 -0.03756381573837191 0.0 1.2058218549133648 0.17357597011417883 0.0 0.8828244022394239 0.17974853435751864 0.0 0.701117563708608 -0.16795160721272137 0.0 1.1155526173743073 -0.09422874868091172 0.0 1.0385298252745971 -0.2237528879760591 0.0 0.8637499002973561 -0.18264977685287112 0.0 0.8754190124815746 -0.025591906637589652 0.0 0.4392662136633202 -0.04804624078473965 0.0 0.2902513558442027 -0.03304670680991307 0.0 1.328939886742608 -0.0418946237633687 0.0 0.20833373910938796 -0.01349315367283586 0.0 1.3554082273393941 -0.08635835290018037 0.0 0.1913145911003784 -0.01907124387496379 0.0 0.5354362251969265 -0.015672596567631567 0.0 -0.0015999469421897666 -0.011257553235514238 0.0 0.5721062360637617 -0.03142952620993757 0.0 0.8788927289792153 0.29716714295438007 0.0 0.8795620644579957 0.41078527656803476 0.0 0.8850964218805993 0.27034709779251864 0.0 0.9122195143167263 0.10985368790789886 0.0 0.8651802817302188 0.22330440752464806 0.0 0.9047297538894791 0.3037319423840998 0.0 0.8572396560710737 0.23353124785799878 0.0 0.8020289520916473 0.18338987989713448 0.0 0.8670558663021899 0.1615366945064546 0.0 0.0 0.0 0.0 0.8415196799994094 0.17670154337672486 0.0 0.8706562702147184 0.17103189760852852 0.0 1.2131461386698472 0.04975793977786385 0.0 1.2376194253788007 0.06496756008250981 0.0 0.8902416009346331 0.01323090847510787 0.0 0.5940070470049319 -0.025957868537758933 0.0 1.279892859738851 0.147092511121552 0.0 0.7176144472952661 -0.1737213088707588 0.0 1.1779823827294726 -0.16454668707299028 0.0 0.9985624523909719 -0.019802228681769056 0.0 1.3235430924390275 -0.007729854647898398 0.0 0.5853463509538739 -0.00012617569412870367 0.0 1.220404685244454 -0.012609815277787753 0.0 0.9833957086365234 0.009217504604507971 0.0 -0.004617656998064394 -0.007061605458357981 0.0 -0.09613956696040783 0.0011068936622516585 0.0 0.9448609338174536 0.34124229364554526 0.0 0.877806834994467 -0.018420877409558258 0.0 0.4273922822333719 -0.008155017797837187 0.0 0.0 0.0 0.0 1.3286814225913717 0.037493345502260175 0.0 1.2126453350209778 0.024954695024739744 0.0 1.3172718957497394 0.11459774366852285 0.0 1.2524308456625444 -0.04436604141788146 0.0 0.41337195046006375 -0.01378860197169072 0.0 1.2282760443774268 0.010501774248332001 0.0 1.291134670334322 0.05686890535586685 0.0 0.04094268939988001 -0.00986364269381748 0.0 -0.08246592717248574 -0.005205623766890448 0.0 -0.0676769124236425 -0.007537813869988655 0.0 -0.08112425243666047 0.00298231666456375 0.0 1.1858285845963394 0.21973163383798874 0.0 0.7774525226278988 0.19848317345302527 0.0 0.7779151158272039 0.15423454320514338 0.0 0.7857376027111114 0.10690805943439757 0.0 0.6205751749974303 0.11098329800467711 0.0 0.3528072232418618 0.0014628453700906326 0.0 0.09312484480311263 0.0038930169205895503 0.0 0.36462955091717736 -0.02060302873970001 0.0 1.0719900744696065 0.07673227511578233 0.0 0.0 0.0 0.0 0.5197084498455299 0.01139426739762916 0.0 0.9317851666494484 0.029202340577724462 0.0 -0.1094623994270107 0.0005517046870917913 0.0 1.0970242393271292 0.26704359221836155 0.0 0.900333812613544 0.11239721308172113 0.0 1.2803867149904222 -0.04956286916268457 0.0 0.1865759924311 -0.0037061891876615403 0.0 0.35862636620595817 0.017789544023406594 0.0 0.14290764045765217 0.00011076479851437215 0.0 1.302919277111269 0.0392558113928849 0.0 -0.10614124532766982 -0.001633506094936984 0.0 -0.07756716356863826 -0.006588597881535864 0.0 -0.09784639880450778 -0.004609409556320109 0.0 -0.043656925134581685 0.006995829382989465 0.0 -0.09570613849659936 0.0010234133391464285 0.0 -0.11597163968224702 5.6782387553569306e-06 0.0 -0.06698945505263372 -0.002082783455046911 0.0 -0.041560634787951155 0.0034295113647377423 0.0 -0.11981280855463196 -0.0020799838526470212 0.0 0.07501826913733917 -0.0020109828164005653 0.0 -0.0389812461648932 0.005660393892705277 0.0 -0.1232623595953921 -0.001152297648043673 0.0 -0.12191859702306934 -0.0007758874058634617 0.0 -0.024011144179548773 -0.0024556372030160954 0.0 0.0 0.0 0.0 0.9464235010535947 0.25546800186778557 0.0 0.9513522552208481 0.04010246066821503 0.0 0.22458204211964836 -0.00440985101478249 0.0 0.3084458506527167 -0.004530179335383132 0.0 0.5441486803436845 0.020919782639272754 0.0 0.9121974868188606 0.042993989338550705 0.0 1.1920024711734984 0.034556323798896324 0.0 1.3537306163262983 0.014639289536168833 0.0 0.08787932477652517 0.002183558692485295 0.0 -0.03613878881344651 6.880492957046172e-05 0.0 0.022333800014099174 -0.01170697656827791 0.0 0.13510006845408185 -0.008773748162977525 0.0 0.12524703963489384 -0.013865082505173976 0.0 0.3151803279973209 -0.023334986972617534 0.0 0.5749831179345809 -0.05104663699129139 0.0 0.8593845820774177 -0.05253748257650791 0.0 0.3664417933640893 -0.03185648551851604 0.0 0.5549900806905702 -0.035931212274452874 0.0 0.650313519928196 -0.04788515297523782 0.0 0.770042352329919 -0.04115575771876111 0.0 0.25878024201575056 -0.02834150873389111 0.0 1.2728665144017628 -0.06471225933714608 0.0 1.058539050180331 -0.05192594945255033 0.0 1.2865737790325893 -0.029142430439854355 0.0 1.0490094380770862 -0.039797053158923956 0.0 -0.043163578226487115 -0.0088567887742456 0.0 1.0270882138489081 -0.0671264757275082 0.0 1.0601485102879145 -0.030141204759221905 0.0 1.226479845371402 -0.10322487686842895 0.0 -0.10911417121390539 -0.002238065482686611 0.0 0.46008481782295824 -0.04578364465063676 0.0 1.2512579883448989 -0.10553714429735078 0.0 0.13119414552873743 -0.021832714782052134 0.0 -0.1222926650682035 -0.0008744069581169636 0.0 1.2615577589586329 -0.08745846985151119 0.0 0.06274402833020656 -0.021123299638239282 0.0 -0.11181062577895598 -0.002561840531771933 0.0 -0.026603750823277452 0.009967803754340806 0.0 0.04526101902485648 -0.017748588803333097 0.0 -0.06807171463867358 -0.008046513670826361 0.0 0.4181945078117216 -0.04907579061948947 0.0 -0.04805011619871717 -0.010785436551358418 0.0 0.11195746904896195 0.030089717997647803 0.0 -0.0827199990185197 0.0056632208163521 0.0 -0.07325527830994412 -0.00635150274259663 0.0 -0.09988157870772528 0.000622816936654232 0.0 0.03907983791090035 0.017137261062460763 0.0 1.21594993488765 0.10280193076989338 0.0 0.32723289215201895 0.0373633735239276 0.0 0.3040442510836591 -0.04483309937128819 0.0 0.2554607879945537 -0.010208832054670925 0.0 0.707986484760498 -0.02066079214674439 0.0 0.3059606682372783 0.005563056415933194 0.0 1.1765515640545439 0.05296330973194158 0.0 0.8887340603024008 0.060971628165594566 0.0 0.9290682591978815 -0.08288363422203605 0.0 -0.04794038458310414 -0.004227666539143306 0.0 -0.05911660694828883 -0.0037415018305161636 0.0 -0.1193122735098597 -0.0015457651989771205 0.0 -0.04598539533851564 0.004028290124363014 0.0 -0.07987293347663649 -0.004263734251842152 0.0 0.32549300212911625 -0.03865580611725855 0.0 1.2582290858966458 -0.09357360950242198 0.0 0.6258465960554083 -0.06173597573721639 0.0 0.8934720973919792 -0.08595428908400907 0.0 -0.02929879274706991 0.012776778706623183 0.0 0.06032154587511738 -0.022990411873347334 0.0 -0.008097948974180967 -0.01503307598715252 0.0 0.20772545088058753 -0.0387186999704762 0.0 -0.01699214850695872 -0.014623841129557115 0.0 1.2531831183681603 0.10609559772082616 0.0 -0.06731348462932452 -0.0011194292421178654 0.0 -0.015295031955061 0.010656436146154026 0.0 -0.05196846662305492 2.2882698893112832e-05 0.0 0.05379819730658365 -0.02176496052879535 0.0 0.3369158634621462 0.02458539847466547 0.0 0.6877699999633821 -0.07016955861850092 0.0 0.5069184396652752 -0.05989072152116131 0.0 0.7867435454554021 -0.06841168514924913 0.0 0.264106398642006 -0.03846906611224191 0.0 0.8188647698879237 -0.08769132241367544 0.0 1.1664044970811005 -0.09111040171337301 0.0 1.067434746368741 -0.08372034952147453 0.0 1.0406823413719541 -0.07522476610772172 0.0 0.5916129110814203 -0.06954533514441687 0.0 0.5030079413502785 -0.06456731682744613 0.0 0.39009850450290917 -0.0574412817866625 0.0 0.3655288557311441 -0.054134577257907636 0.0 0.14354081679615863 -0.03309573705811882 0.0 0.7863455928936937 -0.08829319568333073 0.0 0.2593294429308164 0.014678978081315974 0.0 0.6065170462306404 0.03782089749559912 0.0 0.06664948364613389 0.0059584048868929875 0.0 0.1711464842505825 0.01775152212263542 0.0 -0.07063400278997961 0.0002329132588108362 0.0 1.3327219018124674 -0.02442378149748704 0.0 1.217924316661103 0.0411252393065593 0.0 1.3551868292026559 -0.012070248233237784 0.0 1.3267306042824183 -0.06320093819451458 0.0 0.16831461760214664 -0.03597334960822174 0.0 0.356237599522693 -0.05469082724323429 0.0 0.5583608056125915 0.046745787232942766 0.0 0.08677540730563862 0.015482291837706432 0.0 1.3082200640738553 0.004059908550002678 0.0 1.3482595942732354 -0.03298181443489791 0.0 0.5170472687907671 0.06838286425336453 0.0 1.327138937447392 -0.07669135316240346 0.0 0.5882970615029101 0.043249368717281064 0.0 1.282362002970929 0.07191829333914836 0.0 0.3323138441582031 0.03353758859482576 0.0 0.7037013410610247 0.0637305506301294 0.0 1.33471185742038 0.024137885715891427 0.0 1.2312607189947484 -0.024207885744168604 0.0 1.3178141287363117 -0.08671251652214453 0.0 0.8246173771639811 0.06133951073287898 0.0 1.0475205708774644 0.07892853866243021 0.0 1.1067717463580515 0.07232791063747754 0.0 1.2666348353701966 0.09851043067224603 0.0 1.1282472981414113 0.09726478322322311 0.0 0.97450264118073 0.08122876758488956 0.0 0.6683128063686099 0.06726596086860034 0.0 1.2734336835763795 -0.08997162169254307 0.0 0.0 0.0 0.0 1.3079495168106696 0.05780325086275459 0.0 0.9164814784495233 0.08950488165259936 0.0 0.3248359842395783 0.041871992913114275 0.0 1.3158770734879708 0.07160974414410445 0.0 0.898935021740934 0.08528919942971297 0.0 1.27055529639619 0.09127188762189395 0.0 0.5976191637502519 0.06615034061493624 0.0 1.2616813946634058 0.10360192618115485 0.0 0.5485766653845772 0.06801764432201687 0.0 0.2553682978519513 0.040104209174915605 0.0 1.1462827324392428 0.10155228136058575 0.0 0.6608419898989912 0.07465080186861223 0.0 1.0719509610845084 0.10333096747804345 0.0 0.8440298475233481 0.09042604499686792 0.0 0.7750560954563965 0.08856811154720176 0.0 1.1954062865082584 0.08868175629753285 0.0 1.1157846906983604 0.09183119968778648 0.0 1.3061872673802588 0.0818836510659646 0.0 0.15528810429514597 0.02872330335380214 0.0 1.1521268666414655 0.07909455183625053 0.0 1.2161374182905658 0.10648693258389477 0.0 1.15691489975094 0.1074427781487907 0.0 1.2333369364585385 0.10714443628830132 0.0 1.2434001449648915 0.10820962475431316 0.0 1.2911307545349968 0.08706918238504799 0.0 1.1832027822149778 0.06844172340925649 0.0 0.9443656517687578 0.10126366831975671 0.0 1.229140410902402 0.09252825099517946 0.0 1.278939960019847 0.09068517436597183 0.0 1.0451307735212332 0.06526932357453263 0.0 1.1619207085405139 0.10948821358100481 0.0 1.0786791081958165 0.10793970483429116 0.0 1.0591394857974818 0.10605489442837206 0.0 1.232225274243946 0.09683171778926135 0.0 0.0 0.0 0.0 0.6445055628218436 -0.005587092836766642 0.0 1.07783400037381 0.4342545567963816 0.0 1.1669027481247847 0.42226876509505096 0.0 1.082249641000583 -0.4267742893012403 0.0 0.8656013996386391 -0.22701992543903696 0.0 0.9788857246407042 -0.25551088906913155 0.0 0.892368771459427 -0.08499314747864874 0.0 1.222823454647654 -0.05227885470888805 0.0 1.0814349020000718 -0.06398867708431664 0.0 1.1987408537718958 -0.10444324138515879 0.0 1.2651738522793872 -0.08454254768915379 0.0 1.3153532135960446 -0.05370019974928432 0.0 -0.08309076679789268 -0.0025663673460630705 0.0 -0.0503576788859168 0.007695259485409417 0.0 0.0007046204840442614 0.010049792502251177 0.0 0.0006374708033407705 0.012058939544026297 0.0 0.14657054181922372 0.026840037490335915 0.0 -0.05705350720773627 0.008206207211378665 0.0 0.0611127091894926 0.021899532632487884 0.0 0.2166332896227512 0.03709791054429299 0.0 0.08476728515701143 0.03815030377996801 0.0 -0.036051770751955634 0.015020964460392895 0.0 1.0348446071117061 0.1607818214009833 0.0 -0.070365132564739 0.0045832128939446 0.0 1.2550018136114627 -0.10059364632124697 0.0 1.142392851166368 -0.09824185369615868 0.0 0.9513009969148123 -0.09250140867459353 0.0 1.1045980980707328 -0.10215629343928624 0.0 1.2398868052887528 -0.10648515104736526 0.0 0.9139172702181012 -0.09542132279412203 0.0 1.247482061999742 -0.10669970990537658 0.0 1.0785719652855632 -0.10491229321422695 0.0 1.1337023205784544 -0.10488685775528278 0.0 0.8647774127435789 -0.09482525920645603 0.0 0.9083006143081652 -0.09724799485898064 0.0 0.6273618727006692 -0.0777402210274847 0.0 1.1050839031988646 -0.10742501069378181 0.0 1.2336042916750407 -0.10623945314529688 0.0 1.0697217667697807 -0.10520680711134364 0.0 1.1680449717332368 -0.08584893806937506 0.0 1.1936536036347027 -0.1084989370206254 0.0 0.683363614692321 -0.08172778421949373 0.0 1.1416074236280813 -0.10565174388243638 0.0 0.9402461176017106 -0.09856561482160178 0.0 0.63808