<?xml version="1.0"?>
<VTKFile type="UnstructuredGrid"  version="0.1"  >
<UnstructuredGrid>
<Piece  NumberOfPoints="1289" NumberOfCells="2413">
<Points>
<DataArray  type="Float64"  NumberOfComponents="3"  format="ascii">0 0 0  0 0.41 0  2.2 0.41 0  2.2 0 0  0.1 0.1 0  0.1 0.3 0  0.8 0.3 0  0.8 0.1 0  0.25 0.2 0  0.248976 0.210065 0  0.245948 0.219718 0  0.241038 0.228563 0  0.234448 0.23624 0  0.226448 0.242432 0  0.217365 0.246888 0  0.207571 0.249423 0  0.197468 0.249936 0  0.187467 0.248404 0  0.17798 0.24489 0  0.169395 0.239539 0  0.162062 0.232569 0  0.156283 0.224265 0  0.152293 0.214968 0  0.150257 0.205058 0  0.150257 0.194942 0  0.152293 0.185032 0  0.156283 0.175735 0  0.162062 0.167431 0  0.169395 0.160461 0  0.17798 0.15511 0  0.187467 0.151596 0  0.197468 0.150064 0  0.207571 0.150577 0  0.217365 0.153112 0  0.226448 0.157568 0  0.234448 0.16376 0  0.241038 0.171437 0  0.245948 0.180282 0  0.248976 0.189935 0  1.1 0 0  1.1 0.41 0  0.1 0.2 0  0.45 0.1 0  0.45 0.3 0  0.55 0 0  0.275 0.1 0  0.275 0.3 0  0.275 0 0  0.55 0.41 0  0 0.205 0  0.825 0 0  0.825 0.41 0  0.275 0.41 0  0.1 0.15 0  0.1875 0.1 0  0.1 0.25 0  0.1875 0.3 0  0.132322 0.2 0  0.241426 0.253518 0  0.241426 0.146482 0  0.264574 0.17974 0  0.264574 0.22026 0  0.138434 0.187348 0  0.153372 0.150948 0  0.148413 0.164094 0  0.176495 0.136535 0  0.22768 0.143571 0  0.138434 0.212652 0  0.148413 0.235906 0  0.176495 0.263465 0  0.22768 0.256429 0  0.23125 0.3 0  0.24769 0.24094 0  0.23125 0.1 0  0.24769 0.15906 0  0.26253 0.193641 0  0.190482 0.137872 0  0.166753 0.146661 0  0.157737 0.244461 0  0.190482 0.262128 0  0.203107 0.261264 0  0.253635 0.22977 0  0.203107 0.138736 0  0.253635 0.17023 0  0.261028 0.206206 0  0.167707 0.251809 0  0.143629 0.224191 0  0.215302 0.2591 0  0.270465 0.245894 0  0.215302 0.1409 0  0.270465 0.154106 0  0.284052 0.202587 0  0.14375 0.3 0  0.209375 0.3 0  0.225966 0.278501 0  0.209375 0.1 0  0.225966 0.121499 0  0.211613 0.273759 0  0.211613 0.126241 0  0.143629 0.175809 0  0.1 0.175 0  0.133484 0.164832 0  0.144491 0.249539 0  0.1 0.225 0  0.133484 0.235168 0  0.3625 0.3 0  0.25691 0.253381 0  0.25691 0.146619 0  0.277205 0.188698 0  0.184724 0.275712 0  0.237372 0.268285 0  0.184724 0.124288 0  0.237372 0.131715 0  0.197578 0.273149 0  0.193656 0.286994 0  0.197578 0.126851 0  0.193656 0.113006 0  0.122953 0.187671 0  0.118362 0.153758 0  0.155372 0.258107 0  0.122953 0.212329 0  0.118362 0.246242 0  0.276394 0.27264 0  0.276394 0.12736 0  0.280965 0.170013 0  0.253125 0.3 0  0.14375 0.1 0  0.253125 0.1 0  0.269489 0.26014 0  0.269489 0.13986 0  0.303639 0.184297 0  0.165625 0.3 0  0.134742 0.273113 0  0.257831 0.274737 0  0.255279 0.128499 0  0.3625 0.1 0  0.165625 0.1 0  0.162031 0.132368 0  0.134955 0.126405 0  0.149334 0.125568 0  0.142936 0.139597 0  0.12695 0.140259 0  0.242514 0.285501 0  0.242514 0.114499 0  0.1 0.125 0  0.117483 0.12555 0  0.11154 0.139776 0  0.121875 0.1 0  0.109143 0.1125 0  0.126805 0.114 0  0.220313 0.29129 0  0.351562 0.287369 0  0.207222 0.2866 0  0.220312 0.10871 0  0.1375 0 0  0.20625 0 0  0.207222 0.1134 0  0.11722 0.17118 0  0.1 0.1625 0  0.0778409 0.16875 0  0.0862762 0.15625 0  0 0.15375 0  0 0.1025 0  0.11722 0.22882 0  0.1 0.2375 0  0 0.3075 0  0.0862762 0.23125 0  0.0598995 0.222547 0  0.0860223 0.2125 0  0.289584 0.181469 0  0.300267 0.16446 0  0.163832 0.269071 0  0.149597 0.273325 0  0.1 0.275 0  0.268498 0.285953 0  0.31875 0.3 0  0.294154 0.254672 0  0.296875 0.3 0  0.293558 0.271845 0  0.285095 0.286799 0  0.324298 0.264316 0  0.307866 0.263745 0  0.317093 0.234901 0  0.315485 0.281219 0  0.316547 0.250625 0  0.344693 0.243731 0  0.331592 0.251147 0  0.35129 0.270663 0  0.338689 0.263683 0  0.340625 0.3 0  0.249849 0.264383 0  0.265097 0.11422 0  0.284688 0.156136 0  0.242188 0.324017 0  0.0856613 0.2625 0  0.132812 0.0612217 0  0.264062 0.0612217 0  0.198437 0.07598340000000001 0  0.0860223 0.1375 0  0.0794526 0.191089 0  0.285228 0.140397 0  0.298655 0.148737 0  0.31875 0.1 0  0.327335 0.15374 0  0.296875 0.1 0  0.312289 0.155283 0  0.313348 0.135607 0  0.321802 0.173916 0  0.298433 0.134116 0  0.112124 0.2625 0  0.127526 0.259083 0  0.121875 0.3 0  0.0682687 0.241503 0  0.1 0.2875 0  0.117762 0.28125 0  0.107813 0.3 0  0.103906 0.313849 0  0.0778409 0.28125 0  0.1375 0.41 0  0.0862762 0.29375 0  0.08886860000000001 0.24375 0  0.307812 0.338778 0  0.307812 0.292227 0  0.33216 0.279164 0  0.387888 0.266414 0  0.264063 0.31948 0  0.110937 0.07598340000000001 0  0.242188 0.07598340000000001 0  0.319914 0.11839 0  0.340625 0.1 0  0.334448 0.133793 0  0.329687 0.108539 0  0.346259 0.118491 0  0.360334 0.173636 0  0.327539 0.205033 0  0.132812 0.288712 0  0.362436 0.278836 0  0.368105 0.259418 0  0.4125 0.41 0  0.329687 0.324017 0  0.329687 0.292306 0  0.285938 0.318952 0  0.417187 0.338778 0  0.324481 0.14148 0  0.351562 0.106771 0  0.40625 0.1 0  0.341028 0.168342 0  0.319221 0.190479 0  0.335292 0.184501 0  0.305563 0.20794 0  0.220313 0.31948 0  0.132812 0.332772 0  0.0865876 0.311259 0  0.0598995 0.302453 0  0.0906541 0.343255 0  0.353543 0.255837 0  0.36574 0.237633 0  0.405007 0.254279 0  0.275795 0.352123 0  0.4125 0 0  0.35493 0.137394 0  0.366563 0.120618 0  0.35917 0.205246 0  0.198438 0.318952 0  0.0626109 0.263892 0  0.40625 0.3 0  0.354809 0.155936 0  0.386512 0.146872 0  0.373101 0.159939 0  0.384375 0.1 0  0.343394 0.19929 0  0.350682 0.185683 0  0.368101 0.189748 0  0.344016 0.221511 0  0.391108 0.213329 0  0.376279 0.204783 0  0.398843 0.182768 0  0.375804 0.222746 0  0.390665 0.196958 0  0.394004 0.23518 0  0.359883 0.222828 0  0.419908 0.204359 0  0.404243 0.204783 0  0.412615 0.224526 0  0.20625 0.41 0  0.165625 0.325257 0  0.0347982 0.244954 0  0.379558 0.247154 0  0.34165 0.147603 0  0.372264 0.136992 0  0.388988 0.121989 0  0.373437 0.108554 0  0.351562 0.31948 0  0.391367 0.16527 0  0.399572 0.223324 0  0.452011 0.227371 0  0.40877 0.239392 0  0.431491 0.237337 0  0.421224 0.250459 0  0.449619 0.262098 0  0.418865 0.276779 0  0.437063 0.252274 0  0.415673 0.263227 0  0.430988 0.266772 0  0.402767 0.273419 0  0.452967 0.244883 0  0.428125 0.3 0  0.408502 0.286186 0  0.384375 0.3 0  0.392267 0.285807 0  0.465927 0.219339 0  0.43489 0.283846 0  0.376424 0.286289 0  0.625 0.3 0  0.473533 0.205186 0  0.461713 0.255517 0  0.5375 0.3 0  0.465725 0.235405 0  0.44631 0.201425 0  0.471875 0.3 0  0.494307 0.227729 0  0.459448 0.206736 0  0.462294 0.180792 0  0.478933 0.227536 0  0.486793 0.21381 0  0.486322 0.251373 0  0.50065 0.215318 0  0.54005 0.175389 0  0.474633 0.189893 0  0.512916 0.208697 0  0.49531 0.199967 0  0.475889 0.175275 0  0.625 0.1 0  0.459311 0.153933 0  0.513645 0.242704 0  0.392892 0.248539 0  0.374815 0.271913 0  0.365974 0.14871 0  0.395312 0.109184 0  0.417061 0.123981 0  0.483196 0.277003 0  0.381967 0.179632 0  0.429898 0.219374 0  0.433473 0.206165 0  0.43149 0.181038 0  0.444208 0.215487 0  0.472985 0.247309 0  0.49375 0.3 0  0.475579 0.262714 0  0.49916 0.274293 0  0.501175 0.184809 0  0.514164 0.225681 0  0.543648 0.214977 0  0.5341630000000001 0.23481 0  0.527396 0.216171 0  0.5375 0.1 0  0.534548 0.202315 0  0.561545 0.192513 0  0.5494289999999999 0.201221 0  0.570923 0.218346 0  0.412582 0.149833 0  0.489327 0.264745 0  0.502439 0.254775 0  0.462391 0.271166 0  0.496775 0.241732 0  0.5294410000000001 0.268606 0  0.482812 0.291099 0  0.46879 0.285038 0  0.452663 0.284065 0  0.51789 0.257882 0  0.53408 0.252026 0  0.560142 0.243543 0  0.545708 0.243474 0  0.547532 0.229019 0  0.55282 0.265323 0  0.398971 0.153424 0  0.400349 0.135684 0  0.410135 0.168145 0  0.428823 0.161323 0  0.415266 0.183779 0  0.329687 0.0810483 0  0.395312 0.0612217 0  0.373437 0.318952 0  0.439062 0.324017 0  0.561816 0.229354 0  0.585029 0.239287 0  0.431827 0.139854 0  0.446796 0.168929 0  0.351562 0.07598340000000001 0  0.395313 0.318944 0  0.54337 0.150762 0  0.460937 0.31948 0  0.418412 0.137529 0  0.428125 0.1 0  0.442783 0.152332 0  0.450742 0.134294 0  0.373437 0.0805201 0  0.384383 0.342558 0  0.482812 0.318952 0  0.429239 0.127457 0  0.444274 0.117405 0  0.426548 0.113815 0  0.49375 0.1 0  0.488954 0.113984 0  0.457973 0.121842 0  0.471621 0.137346 0  0.515625 0.325257 0  0.48125 0.41 0  0.417187 0.07598340000000001 0  0.496363 0.126778 0  0.479043 0.155715 0  0.439062 0.0805201 0  0.481795 0.126919 0  0.471875 0.1 0  0.489227 0.142159 0  0.515625 0.1 0  0.520062 0.147117 0  0.501244 0.161791 0  0.505431 0.112984 0  0.505344 0.14029 0  0.526563 0.119081 0  0.5181750000000001 0.131908 0  0.539868 0.136937 0  0.460937 0.108383 0  0.474242 0.114415 0  0.460937 0.0810483 0  0.487841 0.167168 0  0.526563 0.0612217 0  0.526563 0.106406 0  0.537619 0.112743 0  0.58125 0.1 0  0.559375 0.1 0  0.482812 0.08105569999999999 0  0.471883 0.0587655 0  0.570312 0.129396 0  0.548437 0.07598340000000001 0  0.504687 0.08105569999999999 0  0.49375 0.0470127 0  0.570312 0.112663 0  0.592798 0.12103 0  0.553986 0.12103 0  0.570312 0.0805201 0  0.48125 0 0  0.114787 0.2 0  0.160769 0.284765 0  0.175816 0.288361 0  0.162602 0.116048 0  0.154687 0.07598340000000001 0  0.176562 0.0805201 0  0.0598995 0.147547 0  0.307812 0.109924 0  0.291279 0.117157 0  0.278491 0.112989 0  0.285937 0.07598340000000001 0  0.307812 0.0805201 0  0.296928 0.196743 0  0.318141 0.218507 0  0.330208 0.227509 0  0.301397 0.225668 0  0.302706 0.241401 0  0.292574 0.21424 0  0.282762 0.230935 0  0.284351 0.244775 0  0.269553 0.23261 0  0.278572 0.217242 0  0.226924 0.342606 0  0.446928 0.185396 0  0.515625 0.3 0  0.504687 0.288879 0  0.515256 0.276534 0  0.529479 0.285328 0  0.58125 0.3 0  0.541969 0.272936 0  0.559375 0.3 0  0.556796 0.282529 0  0.543473 0.287206 0  0.581429 0.267774 0  0.566728 0.271171 0  0.570869 0.255585 0  0.577404 0.283865 0  0.603125 0.3 0  0.597531 0.28035 0  0.570312 0.338778 0  0.592188 0.292492 0  0.603513 0.256094 0  0.614063 0.286265 0  0.610329 0.27064 0  0.632708 0.251285 0  0.657223 0.261594 0  0.618789 0.257807 0  0.614188 0.22987 0  0.630935 0.265614 
[...]
<PointData  Vectors="v"> 
	<DataArray  type="Float64"  Name="v"  NumberOfComponents="3" format="ascii">
0.0 0.0 0.0 0.0 0.0 0.0 0.0 0.0 0.0 0.0 0.0 0.0 0.7962290053647896 -0.1959797181847103 0.0 0.8404093996321292 0.2077723911457058 0.0 1.1691976613358674 -0.060117129515557456 0.0 1.1360418745705492 0.05516626588786659 0.0 0.0 0.0 0.0 0.0 0.0 0.0 0.0 0.0 0.0 0.0 0.0 0.0 0.0008503754686898335 0.0007860640491124815 0.0 -6.216143957299963e-06 -0.00014645080650649902 0.0 0.0003890925614630179 0.0006862321946272663 0.0 0.0 0.0 0.0 0.0 0.0 0.0 0.0 0.0 0.0 0.0 0.0 0.0 0.0 0.0 0.0 0.0 0.0 0.0 0.0 0.0 0.0 0.0 0.0 0.0 0.0 0.0 0.0 0.0 0.0 0.0 0.0 0.0 0.0 0.0 0.0 0.0 0.0 0.0 0.0 0.0 0.0 0.0 0.0 0.0 0.0 0.0 0.0 0.0 0.0 0.0 0.0 0.0 0.0 0.0 0.0005891075148641748 -0.0010237206938961422 0.0 0.0006817026599353724 -0.0010458907524396686 0.0 0.0008483633314287527 -0.0007955131333687018 0.0 0.0 0.0 0.0 0.0 0.0 0.0 0.0 0.0 0.0 0.0 0.0 0.0 0.0 0.0 0.0 0.7613283577154364 -0.001277646608006044 0.0 1.275545970954652 0.08283491469260547 0.0 1.2662725281588756 -0.0774788838264462 0.0 0.0 0.0 0.0 1.3536267269483997 -0.1330224631150335 0.0 1.3582012194029724 0.1548377116019041 0.0 0.0 0.0 0.0 0.0 0.0 0.0 1.0 0.0 0.0 0.0 0.0 0.0 0.0 0.0 0.0 0.0 0.0 0.0 0.8425921300816498 -0.23188199830438086 0.0 1.1513814323177904 -0.3443274083281684 0.0 0.8637831176659009 0.22931185931660894 0.0 1.1662969018374705 0.35410873666117837 0.0 0.42823525992436695 -0.003961598880227552 0.0 0.1648538013970392 0.062391031198102194 0.0 0.1700445204440565 -0.06104138149190863 0.0 -0.027429938213109472 -0.038269879508081334 0.0 -0.025845847689668845 0.03626754211531193 0.0 0.3343762303028967 -0.27983384645323084 0.0 0.8578845424929455 -0.6734527938538426 0.0 0.6399874721197543 -0.6881424611463974 0.0 1.2061275839952976 -0.6132902521322141 0.0 0.4153139903350194 -0.0692942093133221 0.0 0.3304486132622509 0.26875681398462314 0.0 0.6428358425390442 0.6693339413591974 0.0 1.1851556376338028 0.6153952617584124 0.0 0.4081618356722686 0.07136872086582409 0.0 1.3132670699957603 0.2608979743233279 0.0 0.32313682311898834 0.2519049762876488 0.0 1.3026168538166016 -0.24055325046870651 0.0 0.31424823751008507 -0.23921668805236082 0.0 -0.03343306110889388 -0.016918226050991265 0.0 1.1248690198153524 -0.39874655544601234 0.0 1.0931854140622967 -0.7243318935179921 0.0 0.8520624078037282 0.7707541063830723 0.0 1.131370068016701 0.3995622006403024 0.0 0.7593643215791898 0.18602780281814624 0.0 0.1087157633788023 0.05142164578622141 0.0 0.7693279961938736 -0.18189022322847948 0.0 0.1111341521229567 -0.049831520723255945 0.0 -0.029494312378848513 0.019062599580168153 0.0 1.0275152744097957 0.7188907668318357 0.0 0.44238522925756874 0.529206618533288 0.0 0.4580513361191348 0.17787923526956081 0.0 0.2709786343500614 0.06899234142009684 0.0 0.46400550238429117 -0.17347589344363654 0.0 0.2768232821582971 -0.0646245209068135 0.0 -0.07499019946233086 0.002316654246662062 0.0 0.9654854535553469 0.3174228363229772 0.0 1.2605851540787325 0.31321427089308573 0.0 1.2451825111397463 0.28887641433354255 0.0 1.2348072529396146 -0.3076636300189675 0.0 1.2477411805939416 -0.2810399412207401 0.0 1.2201952911909024 0.3310738728571012 0.0 1.226068157177172 -0.3226340900247717 0.0 0.4428829037570575 -0.544559730611439 0.0 0.8020150221061534 -0.13962148253549586 0.0 0.6715050448160689 -0.41968832563898695 0.0 0.8773729958580484 0.5938566573740716 0.0 0.7993063255500992 0.14281332984842254 0.0 0.6764950346370933 0.4201630131828356 0.0 1.292783586824054 -0.0072074919801950596 0.0 0.2930131128321459 0.14427578291776957 0.0 0.294567269905651 -0.13429823077997433 0.0 -0.054248394880679666 -0.012897253260444266 0.0 1.2650767639278713 0.47184279122446227 0.0 0.7687502710834035 0.12084365091203429 0.0 1.2610982285268832 -0.47328051902572676 0.0 0.7890170341543121 -0.11563580223823315 0.0 1.2756142044058365 0.4181025483946906 0.0 1.2540211296942163 0.4011589084619998 0.0 1.2715410633206186 -0.4142252137216671 0.0 1.2446689062274903 -0.3811142814726757 0.0 0.5835251332532352 -0.16051566354946276 0.0 0.7964291276291309 -0.3317992293131815 0.0 1.010438811648349 0.6038153314427263 0.0 0.5917512577529447 0.15062085743564785 0.0 0.8125637170589072 0.331715902552917 0.0 0.7458760708048253 0.08081138449421767 0.0 0.7825265809493156 -0.07302720071412647 0.0 0.05218029140775901 -0.022057860741997545 0.0 1.3634955804510278 0.20745925447381436 0.0 0.9298123851005186 -0.322219182689098 0.0 1.3445364087985825 -0.19006640946064607 0.0 0.40909592566461805 0.09079350796359936 0.0 0.42697549449137573 -0.07820998637848346 0.0 -0.054493226861928964 -0.008139358272776117 0.0 1.0573715014282687 0.3540198018025307 0.0 0.9431648451342554 0.39148803063341636 0.0 0.9222789524372179 0.11233926162710152 0.0 0.8241582054351906 -0.08694576129175328 0.0 1.3067894984008008 0.0166310221679681 0.0 1.0274948686410288 -0.3451877198475924 0.0 1.0744734921998738 -0.5703160287372221 0.0 0.9301224942193487 -0.38938536375581734 0.0 0.9974530244984706 -0.4386408421952886 0.0 0.9329184109276979 -0.5428169006368837 0.0 0.8655234082989152 -0.40648894079211956 0.0 1.273393241436314 0.23289695521858622 0.0 1.2715088281114175 -0.21962154455912222 0.0 0.8526513077740542 -0.23562366626368403 0.0 0.879042972496918 -0.30994430314854016 0.0 0.8528895819890427 -0.29903616669881594 0.0 0.8514015344221416 -0.2563940409589249 0.0 0.8542056642745541 -0.25277265490982254 0.0 0.8962649186176888 -0.3194578920224434 0.0 1.3292785262265805 0.3156301219020913 0.0 1.084620595026402 -0.002438595075666589 0.0 1.3146225233936142 0.36239399968222735 0.0 1.3212956408659717 -0.29606745945157426 0.0 0.0 0.0 0.0 0.0 0.0 0.0 1.2993963396840436 -0.3494678311897053 0.0 0.7142398154417663 -0.26730452127184273 0.0 0.8203881294147682 -0.21075505035188977 0.0 0.8711698447268025 -0.11074769274694675 0.0 0.8624385452825636 -0.16375955621013438 0.0 0.9375 0.0 0.0 0.7500000000000001 0.0 0.0 0.7224762216181742 0.2653200864593042 0.0 0.8240398977803594 0.2001576294849976 0.0 0.7499999999999999 0.0 0.0 0.8697183733899622 0.1278342705242333 0.0 0.9287130645847358 0.0428427649637016 0.0 0.8481118939517199 0.04507908995697514 0.0 -0.03481947279223792 -0.01157076556862872 0.0 0.09133944095916635 -0.017568587747295115 0.0 1.1150262252689875 0.5547991369154021 0.0 1.0190229687267318 0.4731660703987424 0.0 0.8809757790195712 0.24548694681489705 0.0 1.200115522963735 0.13904421592812816 0.0 1.3288795582610577 0.05981126707249119 0.0 0.35176671912383933 0.03798228056080774 0.0 1.356174733875522 0.10287850379699649 0.0 0.7139352288445885 0.05373126175921616 0.0 1.1712024646937405 0.10021747177704164 0.0 0.5145129099386624 0.015826597933446183 0.0 0.4961041872264968 0.030023364898003724 0.0 0.06970402577172341 0.013448263077001059 0.0 0.9566929096418962 0.034516310105751596 0.0 0.25695749815322133 0.022169487806463377 0.0 0.1631966820918153 0.008537589856998314 0.0 0.2675255260792662 0.014633803212941604 0.0 0.6666305900116396 -0.004823653063945312 0.0 0.4982771174379968 0.006998252727490112 0.0 1.3157861666438533 0.019300883548430132 0.0 0.5424739998481242 0.06216456777142751 0.0 1.2301485355206268 -0.142023777108069 0.0 0.2018466599282389 -0.037558982884148495 0.0 1.2058191962324973 0.17356252138249723 0.0 0.882826435268987 0.17975437975958453 0.0 0.7011134295722375 -0.16795054754545014 0.0 1.1155576795595041 -0.09423705174186182 0.0 1.038525114191225 -0.22375850611089443 0.0 0.8637478879070591 -0.1826439555820796 0.0 0.875418858171123 -0.025584597850657018 0.0 0.4392859582657403 -0.048063536024226 0.0 0.2902720844674324 -0.033051521272681246 0.0 1.328939178323272 -0.041906130777593954 0.0 0.20832915799860435 -0.013498242665557486 0.0 1.3554097497276711 -0.08637218059799982 0.0 0.19131962274574305 -0.019070619018144153 0.0 0.5354299635129356 -0.01568689807298474 0.0 -0.0016068798348589993 -0.011255358625824346 0.0 0.5721030455112291 -0.0314456691726709 0.0 0.8788965977570754 0.2971732145044636 0.0 0.8795669964608741 0.41079178533007993 0.0 0.8851004955427033 0.27035019009373545 0.0 0.9122205643914787 0.10985961243945538 0.0 0.8651831779212729 0.22330878723693434 0.0 0.9047340199915352 0.30373662877279994 0.0 0.8572430253039606 0.2335349916713142 0.0 0.8020318871642631 0.18339270970058094 0.0 0.8670578078171957 0.16154135557424998 0.0 0.0 0.0 0.0 0.8415218495148974 0.17670572201511234 0.0 0.870658139711528 0.17103869579232978 0.0 1.2131341952235946 0.04974998996594473 0.0 1.2376341001747413 0.06495479258514565 0.0 0.8902657791900085 0.01321763690172134 0.0 0.594038546184491 -0.025975716980800062 0.0 1.2798875298530057 0.14707796254551425 0.0 0.7176113623799043 -0.1737187028810456 0.0 1.177983645962607 -0.164558525419173 0.0 0.998545149695585 -0.019814230636386012 0.0 1.3235472506523291 -0.007738658969753521 0.0 0.5853337805553275 -0.0001410834200550828 0.0 1.22039668654004 -0.012618135660902963 0.0 0.9833830185402831 0.009205886438840257 0.0 -0.004627716331197021 -0.007069471198160715 0.0 -0.09614045412927728 0.0011045660088684366 0.0 0.944866230528569 0.3412455545563183 0.0 0.8778272003697125 -0.018434261485107323 0.0 0.42743246512471084 -0.008171082740639287 0.0 0.0 0.0 0.0 1.3286648048052685 0.03748465631650214 0.0 1.2126558182098108 0.024942539277989013 0.0 1.317261190847692 0.11458384955620977 0.0 1.2524036925352384 -0.044371718933756576 0.0 0.4133673503334731 -0.013799365729964796 0.0 1.2282742875157397 0.010493000977807853 0.0 1.2911494216394044 0.05685868502849899 0.0 0.04093326440760155 -0.009868013197404778 0.0 -0.08247340273529538 -0.005202016459211901 0.0 -0.06768390429317735 -0.0075392053642698974 0.0 -0.08112868712799014 0.002988209918461517 0.0 1.185830860739549 0.21972129817484956 0.0 0.7774560240183933 0.19848409347043136 0.0 0.7779171420450047 0.15423781188101854 0.0 0.7857386826022957 0.10691140315141512 0.0 0.6205771715301898 0.11098534058010938 0.0 0.35284869178996026 0.0014475668349984315 0.0 0.09315989027568294 0.003875989637297407 0.0 0.3646664929245165 -0.020630115326662132 0.0 1.071981341299938 0.07672461958945297 0.0 0.0 0.0 0.0 0.5196957475090452 0.01138191054118478 0.0 0.9317774351003135 0.029191253882415915 0.0 -0.10945627176495563 0.0005408045847191465 0.0 1.0970287906247704 0.2670369003161115 0.0 0.9003348970348094 0.11240196969225608 0.0 1.2803729762047296 -0.049575161591943195 0.0 0.18656245803035515 -0.003715463867541314 0.0 0.35860999954933814 0.017774402729003495 0.0 0.14289293136518436 9.989956665886648e-05 0.0 1.3029296836097186 0.03924757974858627 0.0 -0.10614190659316827 -0.0016391415930559646 0.0 -0.07757308842030448 -0.006594326002858224 0.0 -0.0978484810489542 -0.004620718618090484 0.0 -0.0436406996301978 0.00698534862725718 0.0 -0.09569161712850206 0.0009976036020116809 0.0 -0.11596358949381136 -1.1375589539259909e-05 0.0 -0.06698961337335593 -0.0021103812685457054 0.0 -0.04153846049139052 0.0034106215440428606 0.0 -0.11980732980232117 -0.002104676231605417 0.0 0.07505003581701987 -0.002036626954586897 0.0 -0.038960273834145714 0.00564617588116623 0.0 -0.1232513794336118 -0.0012080531945396404 0.0 -0.12190822528203235 -0.000813304847014002 0.0 -0.023992165212045346 -0.0024981867543850595 0.0 0.0 0.0 0.0 0.9464283535294425 0.25546613229315873 0.0 0.951352417476417 0.040105735403505975 0.0 0.22462286107822815 -0.00442838905361059 0.0 0.3084364128186971 -0.0045397325971546125 0.0 0.5441337018994364 0.020906259492025642 0.0 0.9121929748859239 0.042981090110747154 0.0 1.192004291087878 0.03454817176726998 0.0 1.3537135813146146 0.014631393705461373 0.0 0.08786714123849843 0.0021652169385085124 0.0 -0.03611762880795916 3.752959022498766e-05 0.0 0.02233065174110669 -0.01180571714775311 0.0 0.13513056123016448 -0.008807659687870333 0.0 0.1252637142173108 -0.013923231092250778 0.0 0.31521008358345826 -0.023374117611291316 0.0 0.5749883366739711 -0.05110179128169008 0.0 0.8593933901304431 -0.05256244825996054 0.0 0.36646126630640985 -0.03190924283662254 0.0 0.5550180321009486 -0.03596038419948469 0.0 0.6503296369972531 -0.047921155564531956 0.0 0.7700618834094942 -0.041175693906128005 0.0 0.25878068183306346 -0.02842073936890986 0.0 1.2728439560428673 -0.0647271084727678 0.0 1.0585387257142198 -0.0519435680835638 0.0 1.2865654469525223 -0.0291523567829787 0.0 1.0490147106154986 -0.03981131030670864 0.0 -0.04317554017852057 -0.008990601890874092 0.0 1.0270787352341122 -0.06715488019702584 0.0 1.0601567617430097 -0.030153464145413044 0.0 1.2263763433447268 -0.1030269133353245 0.0 -0.10910915419306365 -0.0023970579939922225 0.0 0.4600759840900855 -0.04586011604289058 0.0 1.251122074443764 -0.10550731145216088 0.0 0.13117371118332763 -0.02194567005074727 0.0 -0.12228091560457935 -0.0009745550909156805 0.0 1.261503573925952 -0.08747936754406589 0.0 0.06268074521802491 -0.021299099306266656 0.0 -0.11180296568214457 -0.002689830597090589 0.0 -0.026567304644438863 0.009844554022893805 0.0 0.04522168189489492 -0.017900495307863876 0.0 -0.06809383883013592 -0.008228335125894236 0.0 0.41813916334493473 -0.04918493142924832 0.0 -0.04809282297756622 -0.010990603361999456 0.0 0.11216443760177451 0.02989944458669446 0.0 -0.08268347693501875 0.005504944624792409 0.0 -0.0732792042728806 -0.0065842861847798285 0.0 -0.09986091410828046 0.0004149251983185041 0.0 0.03913781151205212 0.016992526809795214 0.0 1.2160298210918998 0.10298906436869457 0.0 0.3272584981614788 0.0372830584239683 0.0 0.30391049202705545 -0.044988452319870746 0.0 0.25550021382920807 -0.010231712095109502 0.0 0.708014767424966 -0.020676900637552436 0.0 0.3059444491228874 0.0055507822606336524 0.0 1.1765581024897573 0.052952530752974215 0.0 0.888735760812331 0.06095050360502285 0.0 0.9290116770800831 -0.08293794651576854 0.0 -0.047946146740326594 -0.004244009634528834 0.0 -0.05910608434062594 -0.003808969045789657 0.0 -0.11930181582502068 -0.0016219129960389955 0.0 -0.04597248787377859 0.003962049935263224 0.0 -0.07986797668486062 -0.004356175149376649 0.0 0.3254638986247706 -0.03875944410407116 0.0 1.25814949294196 -0.0935884943602984 0.0 0.6258140318195685 -0.06181307137259673 0.0 0.8933835657676377 -0.08601446587519233 0.0 -0.029219388510766046 0.012575796419036 0.0 0.06021549858502044 -0.023192414091805405 0.0 -0.008208224602027515 -0.015251591677105315 0.0 0.20753681529630627 -0.038893584082119785 0.0 -0.017079408739947524 -0.014854259737474815 0.0 1.2533074741331032 0.10612310954081607 0.0 -0.06730837225842805 -0.0013594160103762559 0.0 -0.01517353019135271 0.010464941610682416 0.0 -0.051952716181780226 -0.00020265184593466602 0.0 0.053597625351504946 -0.02190559217863201 0.0 0.3369031555388266 0.02455828301883611 0.0 0.6877077621786265 -0.07025116696550382 0.0 0.5068218493657966 -0.06000318368255736 0.0 0.7867248889182094 -0.06846610411576355 0.0 0.2640248398088479 -0.03861347581040553 0.0 0.8186888283126372 -0.08774650945941143 0.0 1.1663375444548485 -0.09114297925575765 0.0 1.0673918938702465 -0.08375974497810534 0.0 1.0406584307463136 -0.0752597773183322 0.0 0.5914692607871158 -0.069646670844391 0.0 0.5028024605675675 -0.06467409312510929 0.0 0.38978421985972767 -0.057526155352856795 0.0 0.3652756913861583 -0.0542580602581161 0.0 0.14332420507828367 -0.0332756727691152 0.0 0.7860808993326199 -0.08831676789121998 0.0 0.259313437480719 0.014658528718438162 0.0 0.6065053725428701 0.037803160397132 0.0 0.06664510000825788 0.005925730076852169 0.0 0.17114699221078497 0.017702482658048864 0.0 -0.07062836189221408 0.00018847954915669063 0.0 1.3327389375086078 -0.024431046701260766 0.0 1.2179449170176473 0.04112184936118762 0.0 1.3551684350763866 -0.012077454697139917 0.0 1.3266974272895886 -0.06321023194453854 0.0 0.16804901764026284 -0.03611530420540814 0.0 0.35583028709924663 -0.05469474088875437 0.0 0.5583569731065687 0.04670938036246035 0.0 0.08679670474754174 0.015401636782672777 0.0 1.308237207275435 0.004055685003584645 0.0 1.3482388429422043 -0.032988676534661435 0.0 0.5173006153254764 0.06828284220053746 0.0 1.327097658384267 -0.07670086985091953 0.0 0.5882888490503444 0.043221999797139636 0.0 1.2823835835924409 0.07190285165777752 0.0 0.3323199020523276 0.0334794311121867 0.0 0.7037139080973357 0.06368204766003153 0.0 1.334730927222147 0.02413384623279378 0.0 1.2312389784416005 -0.024213334826740148 0.0 1.3177601200532607 -0.08671668798654977 0.0 0.8246208447121484 0.06131055293118763 0.0 1.0475421424610731 0.07889777869315462 0.0 1.106785665235548 0.072306283683 0.0 1.266708986095814 0.09849295215708928 0.0 1.128320821442222 0.0972260055162204 0.0 0.974532393825642 0.08118663702880066 0.0 0.6683494452085904 0.06719589920408096 0.0 1.2733679626588974 -0.08995400174054062 0.0 0.0 0.0 0.0 1.3079735964061268 0.05779646341986231 0.0 0.9165669584372055 0.08944428191390047 0.0 0.32489642011816505 0.04175979012624159 0.0 1.3159051827830541 0.07159891694094613 0.0 0.8989938697627342 0.08522959543604178 0.0 1.2706063092184627 0.09124957588775982 0.0 0.5976908031100867 0.06605726276388084 0.0 1.2617823782069881 0.10360208515088348 0.0 0.5487401891864071 0.06790605912102457 0.0 0.255482441735588 0.03995108203738646 0.0 1.146384917653585 0.10152131808212313 0.0 0.6609531385989397 0.07455682045527665 0.0 1.0721016422775302 0.10330866866733675 0.0 0.844171388086741 0.09036231402774993 0.0 0.7752753215746416 0.08851889053741496 0.0 1.1954471763907968 0.08865126707645367 0.0 1.115837693686561 0.09179212929209565 0.0 1.3062250475431465 0.08187166107120276 0.0 0.15537028770236744 0.02857394720152876 0.0 1.1521685418358458 0.07911927493910836 0.0 1.2162650717973853 0.106488553037954 0.0 1.1570772827289586 0.10745250465449015 0.0 1.233480647431277 0.10725751017966127 0.0 1.2435448871859374 0.1082767617914358 0.0 1.2911817411061062 0.08706193489289983 0.0 1.1832366395104783 0.0684410979742405 0.0 0.9446608042156746 0.10131575404246711 0.0 1.2292029523086956 0.09258038101392806 0.0 1.2790018319311351 0.09068948730285842 0.0 1.0451649173994724 0.06527477866508065 0.0 1.1621315547737971 0.10957306821914939 0.0 1.0789651007460521 0.10808128311757773 0.0 1.0593606899484365 0.10608047609968861 0.0 1.2322937485439254 0.09691939193699986 0.0 0.0 0.0 0.0 0.6445057033754351 -0.005578213578232212 0.0 1.077841818232447 0.4342553548246927 0.0 1.1669119977911075 0.4222667158768373 0.0 1.0822415748347027 -0.4267731291980635 0.0 0.8655963047929744 -0.22702015693879327 0.0 0.9788799476819752 -0.25551366523010177 0.0 0.8923679345821398 -0.0849881858428037 0.0 1.2228089268816191 -0.052290667894023986 0.0 1.0814137556552572 -0.06400140462467573 0.0 1.1987173348378404 -0.10445846684549095 0.0 1.2651851371421086 -0.08455549630654172 0.0 1.3153667765185206 -0.053710480154211954 0.0 -0.0831016310950266 -0.0025544728951897295 0.0 -0.05035061864845607 0.007692676033410187 0.0 0.0007244794272200948 0.010040253246298899 0.0 0.0006487239731453954 0.012065129173078058 0.0 0.1466008162191051 0.026838460955327645 0.0 -0.057054409948806825 0.008218826350852757 0.0 0.061125362292063466 0.021918681965989745 0.0 0.21664315929801753 0.03710895865653927 0.0 0.08477195820697421 0.0381675133657641 0.0 -0.0360473844296087 0.015042227394710752 0.0 1.0348439875187132 0.16077373183812071 0.0 -0.07034391111313497 0.0044877874739761596 0.0 1.2548930357062724 -0.10059177133247767 0.0 1.1422910404401294 -0.0982695650866042 0.0 0.9511712767105727 -0.0925461012254673 0.0 1.1044405457336577 -0.10216515726367804 0.0 1.2397263877268854 -0.106367774338419 0.0 0.9137050362995813 -0.09544166798018668 0.0 1.2473234281194974 -0.10662712102853203 0.0 1.0783455665516641 -0.10487028267657705 0.0 1.1335187085993412 -0.10486421012310608 0.0 0.8644236645823671 -0.09474239269761428 0.0 0.9080078327011524 -0.09720633545806719 0.0 0.6270072273696813 -0.07774337389549536 0.0 1.1048260099138292 -0.10732662636668201 0.0 1.2334561789591991 -0.10607595417334162 0.0 1.0694187741376373 -0.10504879303495657 0.0 1.1680198244262978 -0.08577677479135813 0.0 1.1934438940118588 -0.10834952266706709 0.0 0.6828992029205239 -0.0815830086264413 0.0 1.1413624532646431 -0.10544561274172146 0.0 0.9398582822021457 -0.098367