<?xml version="1.0"?>
<VTKFile type="UnstructuredGrid"  version="0.1"  >
<UnstructuredGrid>
<Piece  NumberOfPoints="1289" NumberOfCells="2413">
<Points>
<DataArray  type="Float64"  NumberOfComponents="3"  format="ascii">0 0 0  0 0.41 0  2.2 0.41 0  2.2 0 0  0.1 0.1 0  0.1 0.3 0  0.8 0.3 0  0.8 0.1 0  0.25 0.2 0  0.248976 0.210065 0  0.245948 0.219718 0  0.241038 0.228563 0  0.234448 0.23624 0  0.226448 0.242432 0  0.217365 0.246888 0  0.207571 0.249423 0  0.197468 0.249936 0  0.187467 0.248404 0  0.17798 0.24489 0  0.169395 0.239539 0  0.162062 0.232569 0  0.156283 0.224265 0  0.152293 0.214968 0  0.150257 0.205058 0  0.150257 0.194942 0  0.152293 0.185032 0  0.156283 0.175735 0  0.162062 0.167431 0  0.169395 0.160461 0  0.17798 0.15511 0  0.187467 0.151596 0  0.197468 0.150064 0  0.207571 0.150577 0  0.217365 0.153112 0  0.226448 0.157568 0  0.234448 0.16376 0  0.241038 0.171437 0  0.245948 0.180282 0  0.248976 0.189935 0  1.1 0 0  1.1 0.41 0  0.1 0.2 0  0.45 0.1 0  0.45 0.3 0  0.55 0 0  0.275 0.1 0  0.275 0.3 0  0.275 0 0  0.55 0.41 0  0 0.205 0  0.825 0 0  0.825 0.41 0  0.275 0.41 0  0.1 0.15 0  0.1875 0.1 0  0.1 0.25 0  0.1875 0.3 0  0.132322 0.2 0  0.241426 0.253518 0  0.241426 0.146482 0  0.264574 0.17974 0  0.264574 0.22026 0  0.138434 0.187348 0  0.153372 0.150948 0  0.148413 0.164094 0  0.176495 0.136535 0  0.22768 0.143571 0  0.138434 0.212652 0  0.148413 0.235906 0  0.176495 0.263465 0  0.22768 0.256429 0  0.23125 0.3 0  0.24769 0.24094 0  0.23125 0.1 0  0.24769 0.15906 0  0.26253 0.193641 0  0.190482 0.137872 0  0.166753 0.146661 0  0.157737 0.244461 0  0.190482 0.262128 0  0.203107 0.261264 0  0.253635 0.22977 0  0.203107 0.138736 0  0.253635 0.17023 0  0.261028 0.206206 0  0.167707 0.251809 0  0.143629 0.224191 0  0.215302 0.2591 0  0.270465 0.245894 0  0.215302 0.1409 0  0.270465 0.154106 0  0.284052 0.202587 0  0.14375 0.3 0  0.209375 0.3 0  0.225966 0.278501 0  0.209375 0.1 0  0.225966 0.121499 0  0.211613 0.273759 0  0.211613 0.126241 0  0.143629 0.175809 0  0.1 0.175 0  0.133484 0.164832 0  0.144491 0.249539 0  0.1 0.225 0  0.133484 0.235168 0  0.3625 0.3 0  0.25691 0.253381 0  0.25691 0.146619 0  0.277205 0.188698 0  0.184724 0.275712 0  0.237372 0.268285 0  0.184724 0.124288 0  0.237372 0.131715 0  0.197578 0.273149 0  0.193656 0.286994 0  0.197578 0.126851 0  0.193656 0.113006 0  0.122953 0.187671 0  0.118362 0.153758 0  0.155372 0.258107 0  0.122953 0.212329 0  0.118362 0.246242 0  0.276394 0.27264 0  0.276394 0.12736 0  0.280965 0.170013 0  0.253125 0.3 0  0.14375 0.1 0  0.253125 0.1 0  0.269489 0.26014 0  0.269489 0.13986 0  0.303639 0.184297 0  0.165625 0.3 0  0.134742 0.273113 0  0.257831 0.274737 0  0.255279 0.128499 0  0.3625 0.1 0  0.165625 0.1 0  0.162031 0.132368 0  0.134955 0.126405 0  0.149334 0.125568 0  0.142936 0.139597 0  0.12695 0.140259 0  0.242514 0.285501 0  0.242514 0.114499 0  0.1 0.125 0  0.117483 0.12555 0  0.11154 0.139776 0  0.121875 0.1 0  0.109143 0.1125 0  0.126805 0.114 0  0.220313 0.29129 0  0.351562 0.287369 0  0.207222 0.2866 0  0.220312 0.10871 0  0.1375 0 0  0.20625 0 0  0.207222 0.1134 0  0.11722 0.17118 0  0.1 0.1625 0  0.0778409 0.16875 0  0.0862762 0.15625 0  0 0.15375 0  0 0.1025 0  0.11722 0.22882 0  0.1 0.2375 0  0 0.3075 0  0.0862762 0.23125 0  0.0598995 0.222547 0  0.0860223 0.2125 0  0.289584 0.181469 0  0.300267 0.16446 0  0.163832 0.269071 0  0.149597 0.273325 0  0.1 0.275 0  0.268498 0.285953 0  0.31875 0.3 0  0.294154 0.254672 0  0.296875 0.3 0  0.293558 0.271845 0  0.285095 0.286799 0  0.324298 0.264316 0  0.307866 0.263745 0  0.317093 0.234901 0  0.315485 0.281219 0  0.316547 0.250625 0  0.344693 0.243731 0  0.331592 0.251147 0  0.35129 0.270663 0  0.338689 0.263683 0  0.340625 0.3 0  0.249849 0.264383 0  0.265097 0.11422 0  0.284688 0.156136 0  0.242188 0.324017 0  0.0856613 0.2625 0  0.132812 0.0612217 0  0.264062 0.0612217 0  0.198437 0.07598340000000001 0  0.0860223 0.1375 0  0.0794526 0.191089 0  0.285228 0.140397 0  0.298655 0.148737 0  0.31875 0.1 0  0.327335 0.15374 0  0.296875 0.1 0  0.312289 0.155283 0  0.313348 0.135607 0  0.321802 0.173916 0  0.298433 0.134116 0  0.112124 0.2625 0  0.127526 0.259083 0  0.121875 0.3 0  0.0682687 0.241503 0  0.1 0.2875 0  0.117762 0.28125 0  0.107813 0.3 0  0.103906 0.313849 0  0.0778409 0.28125 0  0.1375 0.41 0  0.0862762 0.29375 0  0.08886860000000001 0.24375 0  0.307812 0.338778 0  0.307812 0.292227 0  0.33216 0.279164 0  0.387888 0.266414 0  0.264063 0.31948 0  0.110937 0.07598340000000001 0  0.242188 0.07598340000000001 0  0.319914 0.11839 0  0.340625 0.1 0  0.334448 0.133793 0  0.329687 0.108539 0  0.346259 0.118491 0  0.360334 0.173636 0  0.327539 0.205033 0  0.132812 0.288712 0  0.362436 0.278836 0  0.368105 0.259418 0  0.4125 0.41 0  0.329687 0.324017 0  0.329687 0.292306 0  0.285938 0.318952 0  0.417187 0.338778 0  0.324481 0.14148 0  0.351562 0.106771 0  0.40625 0.1 0  0.341028 0.168342 0  0.319221 0.190479 0  0.335292 0.184501 0  0.305563 0.20794 0  0.220313 0.31948 0  0.132812 0.332772 0  0.0865876 0.311259 0  0.0598995 0.302453 0  0.0906541 0.343255 0  0.353543 0.255837 0  0.36574 0.237633 0  0.405007 0.254279 0  0.275795 0.352123 0  0.4125 0 0  0.35493 0.137394 0  0.366563 0.120618 0  0.35917 0.205246 0  0.198438 0.318952 0  0.0626109 0.263892 0  0.40625 0.3 0  0.354809 0.155936 0  0.386512 0.146872 0  0.373101 0.159939 0  0.384375 0.1 0  0.343394 0.19929 0  0.350682 0.185683 0  0.368101 0.189748 0  0.344016 0.221511 0  0.391108 0.213329 0  0.376279 0.204783 0  0.398843 0.182768 0  0.375804 0.222746 0  0.390665 0.196958 0  0.394004 0.23518 0  0.359883 0.222828 0  0.419908 0.204359 0  0.404243 0.204783 0  0.412615 0.224526 0  0.20625 0.41 0  0.165625 0.325257 0  0.0347982 0.244954 0  0.379558 0.247154 0  0.34165 0.147603 0  0.372264 0.136992 0  0.388988 0.121989 0  0.373437 0.108554 0  0.351562 0.31948 0  0.391367 0.16527 0  0.399572 0.223324 0  0.452011 0.227371 0  0.40877 0.239392 0  0.431491 0.237337 0  0.421224 0.250459 0  0.449619 0.262098 0  0.418865 0.276779 0  0.437063 0.252274 0  0.415673 0.263227 0  0.430988 0.266772 0  0.402767 0.273419 0  0.452967 0.244883 0  0.428125 0.3 0  0.408502 0.286186 0  0.384375 0.3 0  0.392267 0.285807 0  0.465927 0.219339 0  0.43489 0.283846 0  0.376424 0.286289 0  0.625 0.3 0  0.473533 0.205186 0  0.461713 0.255517 0  0.5375 0.3 0  0.465725 0.235405 0  0.44631 0.201425 0  0.471875 0.3 0  0.494307 0.227729 0  0.459448 0.206736 0  0.462294 0.180792 0  0.478933 0.227536 0  0.486793 0.21381 0  0.486322 0.251373 0  0.50065 0.215318 0  0.54005 0.175389 0  0.474633 0.189893 0  0.512916 0.208697 0  0.49531 0.199967 0  0.475889 0.175275 0  0.625 0.1 0  0.459311 0.153933 0  0.513645 0.242704 0  0.392892 0.248539 0  0.374815 0.271913 0  0.365974 0.14871 0  0.395312 0.109184 0  0.417061 0.123981 0  0.483196 0.277003 0  0.381967 0.179632 0  0.429898 0.219374 0  0.433473 0.206165 0  0.43149 0.181038 0  0.444208 0.215487 0  0.472985 0.247309 0  0.49375 0.3 0  0.475579 0.262714 0  0.49916 0.274293 0  0.501175 0.184809 0  0.514164 0.225681 0  0.543648 0.214977 0  0.5341630000000001 0.23481 0  0.527396 0.216171 0  0.5375 0.1 0  0.534548 0.202315 0  0.561545 0.192513 0  0.5494289999999999 0.201221 0  0.570923 0.218346 0  0.412582 0.149833 0  0.489327 0.264745 0  0.502439 0.254775 0  0.462391 0.271166 0  0.496775 0.241732 0  0.5294410000000001 0.268606 0  0.482812 0.291099 0  0.46879 0.285038 0  0.452663 0.284065 0  0.51789 0.257882 0  0.53408 0.252026 0  0.560142 0.243543 0  0.545708 0.243474 0  0.547532 0.229019 0  0.55282 0.265323 0  0.398971 0.153424 0  0.400349 0.135684 0  0.410135 0.168145 0  0.428823 0.161323 0  0.415266 0.183779 0  0.329687 0.0810483 0  0.395312 0.0612217 0  0.373437 0.318952 0  0.439062 0.324017 0  0.561816 0.229354 0  0.585029 0.239287 0  0.431827 0.139854 0  0.446796 0.168929 0  0.351562 0.07598340000000001 0  0.395313 0.318944 0  0.54337 0.150762 0  0.460937 0.31948 0  0.418412 0.137529 0  0.428125 0.1 0  0.442783 0.152332 0  0.450742 0.134294 0  0.373437 0.0805201 0  0.384383 0.342558 0  0.482812 0.318952 0  0.429239 0.127457 0  0.444274 0.117405 0  0.426548 0.113815 0  0.49375 0.1 0  0.488954 0.113984 0  0.457973 0.121842 0  0.471621 0.137346 0  0.515625 0.325257 0  0.48125 0.41 0  0.417187 0.07598340000000001 0  0.496363 0.126778 0  0.479043 0.155715 0  0.439062 0.0805201 0  0.481795 0.126919 0  0.471875 0.1 0  0.489227 0.142159 0  0.515625 0.1 0  0.520062 0.147117 0  0.501244 0.161791 0  0.505431 0.112984 0  0.505344 0.14029 0  0.526563 0.119081 0  0.5181750000000001 0.131908 0  0.539868 0.136937 0  0.460937 0.108383 0  0.474242 0.114415 0  0.460937 0.0810483 0  0.487841 0.167168 0  0.526563 0.0612217 0  0.526563 0.106406 0  0.537619 0.112743 0  0.58125 0.1 0  0.559375 0.1 0  0.482812 0.08105569999999999 0  0.471883 0.0587655 0  0.570312 0.129396 0  0.548437 0.07598340000000001 0  0.504687 0.08105569999999999 0  0.49375 0.0470127 0  0.570312 0.112663 0  0.592798 0.12103 0  0.553986 0.12103 0  0.570312 0.0805201 0  0.48125 0 0  0.114787 0.2 0  0.160769 0.284765 0  0.175816 0.288361 0  0.162602 0.116048 0  0.154687 0.07598340000000001 0  0.176562 0.0805201 0  0.0598995 0.147547 0  0.307812 0.109924 0  0.291279 0.117157 0  0.278491 0.112989 0  0.285937 0.07598340000000001 0  0.307812 0.0805201 0  0.296928 0.196743 0  0.318141 0.218507 0  0.330208 0.227509 0  0.301397 0.225668 0  0.302706 0.241401 0  0.292574 0.21424 0  0.282762 0.230935 0  0.284351 0.244775 0  0.269553 0.23261 0  0.278572 0.217242 0  0.226924 0.342606 0  0.446928 0.185396 0  0.515625 0.3 0  0.504687 0.288879 0  0.515256 0.276534 0  0.529479 0.285328 0  0.58125 0.3 0  0.541969 0.272936 0  0.559375 0.3 0  0.556796 0.282529 0  0.543473 0.287206 0  0.581429 0.267774 0  0.566728 0.271171 0  0.570869 0.255585 0  0.577404 0.283865 0  0.603125 0.3 0  0.597531 0.28035 0  0.570312 0.338778 0  0.592188 0.292492 0  0.603513 0.256094 0  0.614063 0.286265 0  0.610329 0.27064 0  0.632708 0.251285 0  0.657223 0.261594 0  0.618789 0.257807 0  0.614188 0.22987 0  0.630935 0.265614 
[...]
<PointData  Vectors="v"> 
	<DataArray  type="Float64"  Name="v"  NumberOfComponents="3" format="ascii">
0.0 0.0 0.0 0.0 0.0 0.0 0.0 0.0 0.0 0.0 0.0 0.0 0.7962330501972513 -0.19598519090481054 0.0 0.8404051774117152 0.2077668963431338 0.0 1.1685649700385001 -0.059467095013511446 0.0 1.1366014371808628 0.055813839855374366 0.0 0.0 0.0 0.0 0.0 0.0 0.0 0.0 0.0 0.0 0.0 0.0 0.0 0.0008509882353011357 0.0007870213165123976 0.0 1.5296735893569437e-05 -0.00010915511407946536 0.0 0.00039539653368691357 0.0006971511438921048 0.0 0.0 0.0 0.0 0.0 0.0 0.0 0.0 0.0 0.0 0.0 0.0 0.0 0.0 0.0 0.0 0.0 0.0 0.0 0.0 0.0 0.0 0.0 0.0 0.0 0.0 0.0 0.0 0.0 0.0 0.0 0.0 0.0 0.0 0.0 0.0 0.0 0.0 0.0 0.0 0.0 0.0 0.0 0.0 0.0 0.0 0.0 0.0 0.0 0.0 0.0 0.0 0.0 0.0 0.0 0.0005648603032867712 -0.0009817382633812912 0.0 0.0005983046629489996 -0.0009013914166814852 0.0 0.0008463326843327535 -0.0007920462940051534 0.0 0.0 0.0 0.0 0.0 0.0 0.0 0.0 0.0 0.0 0.0 0.0 0.0 0.0 0.0 0.0 0.7613283041875304 -0.0012897331600775508 0.0 1.27548553644113 0.08287428114984377 0.0 1.266335606991686 -0.07744439680219262 0.0 0.0 0.0 0.0 1.3536251426804495 -0.13300564604965287 0.0 1.3581951035668443 0.1548599319495883 0.0 0.0 0.0 0.0 0.0 0.0 0.0 1.0 0.0 0.0 0.0 0.0 0.0 0.0 0.0 0.0 0.0 0.0 0.0 0.8425959163564686 -0.23189194431617738 0.0 1.1513925569709886 -0.3443201884690434 0.0 0.8637792124646353 0.22930204620345124 0.0 1.166286269813658 0.35411664455782144 0.0 0.4282351225473834 -0.003974682395427947 0.0 0.16479677717829874 0.062371324965640317 0.0 0.1700662615964851 -0.0610444211251945 0.0 -0.02740345594177587 -0.038285741592268406 0.0 -0.025867517689864894 0.036243017596698936 0.0 0.3343788342567718 -0.2798479801058281 0.0 0.8578942968318728 -0.673461511292426 0.0 0.639995513048365 -0.6881548158913938 0.0 1.2061440562274546 -0.6132938459278796 0.0 0.41530854072785195 -0.06922370646661488 0.0 0.33044579885643843 0.26874253367482653 0.0 0.642827734634074 0.6693215143999987 0.0 1.185139142329274 0.6153919266722161 0.0 0.40820635691245133 0.07141319428626788 0.0 1.3132614140786059 0.26091485236252115 0.0 0.3232876469244049 0.25200713889456544 0.0 1.3026220505240016 -0.24053405449486703 0.0 0.314100961811267 -0.2391357000299053 0.0 -0.033423734343801685 -0.01693787678076662 0.0 1.1248965659446424 -0.3987519878027298 0.0 1.093201771352035 -0.7243406560951553 0.0 0.8520502458327127 0.7707426682434612 0.0 1.1313404020654827 0.39955719317074345 0.0 0.7593323187906496 0.1860224702824596 0.0 0.10872778250782643 0.051435315861121156 0.0 0.7693572553638782 -0.18189820457327172 0.0 0.11112050378387733 -0.049812589634564315 0.0 -0.029498613470640655 0.019041130316035 0.0 1.0274994371414394 0.7188811550185815 0.0 0.44237877871451947 0.5291924886814301 0.0 0.4580370591800103 0.177928140285648 0.0 0.2710414551474274 0.06899912832056586 0.0 0.464039604787401 -0.1734491294810206 0.0 0.27674362928187096 -0.06460792111362881 0.0 -0.07498716659613198 0.0022916635948857927 0.0 0.9654774293974973 0.3174212728868851 0.0 1.2605750536680438 0.31323072565987825 0.0 1.2451423150908778 0.28889483572236146 0.0 1.2348176379599254 -0.30764845618648873 0.0 1.247783490248627 -0.2810214179427586 0.0 1.2201535823698906 0.33108259219475666 0.0 1.2261110538688091 -0.32262761721407407 0.0 0.4428892943219217 -0.5445738691718947 0.0 0.8020172198231608 -0.13963332499998063 0.0 0.6715107943185602 -0.4197005800434796 0.0 0.8773631180508795 0.5938469226888893 0.0 0.7993039045652787 0.1428015457524054 0.0 0.6764887450088166 0.4201503721690321 0.0 1.292785749532984 -0.0071883891430147015 0.0 0.2930165321805909 0.14432910790412082 0.0 0.2945638034654529 -0.13424850642303232 0.0 -0.054230072445960106 -0.012924736651292467 0.0 1.2650591373118787 0.4718477658614318 0.0 0.7687455350168432 0.12087062511044727 0.0 1.2611150452288686 -0.4732768087740468 0.0 0.7890258651500033 -0.1155994918731693 0.0 1.2755884489629452 0.4181090830496872 0.0 1.2540059769052856 0.401168450498583 0.0 1.2715666819936546 -0.4142205094784904 0.0 1.244684418786184 -0.38110542084542554 0.0 0.5835275088248016 -0.16052911102225792 0.0 0.796434174148234 -0.3318099845529997 0.0 1.0104262304057705 0.6038087930557472 0.0 0.5917487286959178 0.15060735588466806 0.0 0.8125584295717359 0.33170511483075277 0.0 0.7458268221353465 0.0808341000255775 0.0 0.7825637670544007 -0.07300420824476155 0.0 0.05218889732540246 -0.022090026767405756 0.0 1.363498849492596 0.207482062606691 0.0 0.9298203159974839 -0.32222138107176995 0.0 1.3445330622736986 -0.1900424671795516 0.0 0.40907245143924265 0.09083617862964342 0.0 0.4269885909159435 -0.07817478940846448 0.0 -0.054479512017165464 -0.008155750677020263 0.0 1.0573617710818717 0.35402228689488907 0.0 0.9431565116317252 0.39148206355098875 0.0 0.9222595023024794 0.11235327260746399 0.0 0.824176416500849 -0.08693800827386079 0.0 1.3067847132985646 0.016644374020240004 0.0 1.0275046830738983 -0.3451857519728279 0.0 1.0744860926645206 -0.5703200158181404 0.0 0.9301308025411601 -0.38939135169383815 0.0 0.9974632967191328 -0.43864471143607797 0.0 0.9329280427223179 -0.5428249896647186 0.0 0.865530290061894 -0.40649787854426606 0.0 1.2733534008175593 0.23291728788656388 0.0 1.2715402166239387 -0.2196000480174106 0.0 0.8526556126001852 -0.23563141913252234 0.0 0.879049105578011 -0.30995151087367784 0.0 0.8528948462851093 -0.2990450657984821 0.0 0.8514076576192916 -0.2563983143462505 0.0 0.8542109271649534 -0.25277885333854816 0.0 0.8962718393381771 -0.3194632243220379 0.0 1.3292665435265911 0.31565351268837755 0.0 1.0845991662338974 -0.0024171928349833657 0.0 1.3146049284797254 0.3624093942271072 0.0 1.321308354781032 -0.2960440386626225 0.0 0.0 0.0 0.0 0.0 0.0 0.0 1.2994140826864233 -0.3494530611357736 0.0 0.7142432032940635 -0.26731675002655503 0.0 0.8203912920433966 -0.21076587767219324 0.0 0.8711712018492141 -0.11075765137673352 0.0 0.8624409638781757 -0.16376934795761963 0.0 0.9375 0.0 0.0 0.7500000000000001 0.0 0.0 0.7224727053516097 0.26530780927386866 0.0 0.8240366159872248 0.20014677094453182 0.0 0.7499999999999999 0.0 0.0 0.8697163589933404 0.12782372177343845 0.0 0.9287122635358623 0.04283462991664163 0.0 0.8481111645599174 0.045067988501477425 0.0 -0.0348020112102374 -0.011597627141003678 0.0 0.09135310993152293 -0.017587517038946503 0.0 1.1150127535563146 0.5547961635569642 0.0 1.0190122927238643 0.4731615886054808 0.0 0.8809715048721328 0.24547913407159103 0.0 1.200084710327587 0.13906325849540674 0.0 1.3288734353673146 0.0598306139190344 0.0 0.35177872759881135 0.037984465025440256 0.0 1.356171692251801 0.10289842506013357 0.0 0.713907187783186 0.053754881982597785 0.0 1.1711731896924376 0.10023795710338192 0.0 0.5144781441746773 0.015844533966482215 0.0 0.49607226808619015 0.030037532271629246 0.0 0.06968047139483384 0.013447726176372889 0.0 0.9566556971215433 0.03453559174053767 0.0 0.25691821321539143 0.02217870424491513 0.0 0.16315682651096403 0.008553492626375142 0.0 0.26748618387406076 0.014647743881178154 0.0 0.6665899712633179 -0.00479966102095586 0.0 0.4982314522757815 0.00701955703849647 0.0 1.3157859123017073 0.019317376408212298 0.0 0.5424592891144624 0.06215137592854736 0.0 1.2301729948402098 -0.1420005167004549 0.0 0.2018249994568408 -0.03756827457828679 0.0 1.2058236117057082 0.17358223221024952 0.0 0.8828234909997109 0.1797459502499777 0.0 0.701119268065981 -0.16795165788037283 0.0 1.1155494941130246 -0.09422657083949795 0.0 1.0385307816758609 -0.2237493000155318 0.0 0.8637508583840754 -0.1826522396737592 0.0 0.8754191131503234 -0.02559513416647822 0.0 0.4392796194892907 -0.048045623014138165 0.0 0.29027450435255314 -0.033047496508212475 0.0 1.3289410417851688 -0.041890947393984475 0.0 0.20835974696176784 -0.01349386870175191 0.0 1.3554054488987148 -0.08635462725618767 0.0 0.19133862582717523 -0.01907367435427278 0.0 0.5354546235733904 -0.015671709423329357 0.0 -0.0015874098254674753 -0.011258351532312744 0.0 0.5721181029295916 -0.031428803658502584 0.0 0.878891018352113 0.29716467337134045 0.0 0.8795599139785664 0.41078274075669613 0.0 0.8850946291234443 0.27034599509100526 0.0 0.9122190527444669 0.10985097031180872 0.0 0.8651789910583662 0.22330257217649843 0.0 0.9047278706636471 0.30373011674468425 0.0 0.8572381448310529 0.23352973423558557 0.0 0.8020276205887767 0.18338874412411194 0.0 0.8670549796441008 0.161534580824952 0.0 0.0 0.0 0.0 0.8415186934739537 0.17669969440967565 0.0 0.870655451240683 0.17102892887650178 0.0 1.2131509160961993 0.04976183432530234 0.0 1.237613478070137 0.06497333920294118 0.0 0.8902350204052338 0.013236947083839625 0.0 0.5939989787695881 -0.025941148528217488 0.0 1.2798947744684572 0.14709859082028037 0.0 0.7176157953486594 -0.1737221224239814 0.0 1.1779796697593354 -0.16454110059325966 0.0 0.9985677044547758 -0.01980110737299702 0.0 1.3235421962585348 -0.007725661061407336 0.0 0.585365961385193 -0.00012371933670702687 0.0 1.2204067697516732 -0.012608750660633758 0.0 0.9834040241173463 0.009221130013318566 0.0 -0.004606744246066332 -0.0070533420953316165 0.0 -0.0961413800603861 0.001104869556150857 0.0 0.9448586218480218 0.34124122086991776 0.0 0.8777987804957734 -0.018411357726954163 0.0 0.42738520900693344 -0.008144937053287898 0.0 0.0 0.0 0.0 1.3286879098451274 0.037498718020404984 0.0 1.2126406555607772 0.02496116529776475 0.0 1.3172764225356013 0.11460414877388364 0.0 1.252449186703853 -0.04436022234227719 0.0 0.4133956519257059 -0.013788845026567997 0.0 1.2282780996447027 0.010506949348719244 0.0 1.291128261275966 0.056884225627722954 0.0 0.040959089256259004 -0.009861373301114505 0.0 -0.0824643940484835 -0.005208256247972052 0.0 -0.06767148248051516 -0.007536801733777465 0.0 -0.08112814945893025 0.0029750159937297987 0.0 1.185828292958751 0.2197358112917798 0.0 0.7774509785815134 0.19848300742665048 0.0 0.7779141711337277 0.15423310458541822 0.0 0.7857371009614786 0.10690645593560476 0.0 0.6205742112464053 0.11098241141139921 0.0 0.3528028368678391 0.0014689190413960198 0.0 0.0931228863187117 0.003903122752911566 0.0 0.3646279506701901 -0.020574721400780895 0.0 1.0719941804608903 0.07673590461413188 0.0 0.0 0.0 0.0 0.5197309014455369 0.011397639812114078 0.0 0.931795383954472 0.029209085208084518 0.0 -0.1094624600840361 0.0005604875935540684 0.0 1.097022720098647 0.2670469717259588 0.0 0.9003333176237424 0.11239498646754943 0.0 1.2803947045445698 -0.049548159937351656 0.0 0.1865997530882152 -0.0037018141686818076 0.0 0.3586489032195441 0.017805509737608884 0.0 0.14292575622189957 0.00012199002896714455 0.0 1.3029171160861417 0.039267036036431065 0.0 -0.10614108919271514 -0.001630644740786876 0.0 -0.07756218382681998 -0.006583217932266243 0.0 -0.09784364218671047 -0.004596075159636138 0.0 -0.043657995597810764 0.006997783647094731 0.0 -0.09570316829334256 0.0010520253194541184 0.0 -0.11597059712752675 2.4116013991076575e-05 0.0 -0.06698887931887221 -0.0020473563027416917 0.0 -0.0415594183688258 0.0034463330101172462 0.0 -0.11981150770341388 -0.002050279676850734 0.0 0.07502106208209476 -0.001985077548796431 0.0 -0.038982405875483246 0.005668507458412163 0.0 -0.12325815440418729 -0.0010928047502294124 0.0 -0.12191537241594234 -0.0007333703101506526 0.0 -0.024001279096726707 -0.002409765483430963 0.0 0.0 0.0 0.0 0.9464215199600352 0.25546928206889946 0.0 0.9513521824015505 0.040100844140024246 0.0 0.22457877446356214 -0.0043950378161494285 0.0 0.30847185943698524 -0.00452945956035141 0.0 0.5441723484856442 0.02092853422221428 0.0 0.9122096964732954 0.04300755312904068 0.0 1.1920049782499171 0.03456501573749936 0.0 1.3537373766082248 0.01464578062414512 0.0 0.08788937472463725 0.0022078220582439287 0.0 -0.0361332391264319 0.000102629195165263 0.0 0.022366314726423513 -0.011622971755338305 0.0 0.13510716758359487 -0.008737598665479513 0.0 0.1252664356305137 -0.013807903571126573 0.0 0.3151881436136458 -0.023294461896378005 0.0 0.5750055876101368 -0.05099872554666651 0.0 0.8593846617925827 -0.05251133050743236 0.0 0.3664588064021768 -0.03180600670500001 0.0 0.554988778903976 -0.03590032108241798 0.0 0.6503193631299046 -0.047849049672165224 0.0 0.7700363396087093 -0.04113436173439853 0.0 0.25881574231487203 -0.028274016991504895 0.0 1.272883630465361 -0.06469676134340556 0.0 1.0585397620273347 -0.051906351847185825 0.0 1.2865765859078144 -0.029130879116851333 0.0 1.0490054452878017 -0.039781480176613496 0.0 -0.04312699659459958 -0.008753428885950102 0.0 1.0271002075548537 -0.06710002483529649 0.0 1.0601430310114257 -0.030129178413946682 0.0 1.2264849048548006 -0.10332415310062783 0.0 -0.10909770463614996 -0.002121430398727397 0.0 0.4601253485217967 -0.04572365824355593 0.0 1.2513432973131102 -0.1055834858834213 0.0 0.13124458296240368 -0.021745965610271534 0.0 -0.12228678415326823 -0.0007848395329943756 0.0 1.2616027086683381 -0.08745035462793543 0.0 0.06282226235085238 -0.021017795660892874 0.0 -0.11179733490491472 -0.0024584327735362307 0.0 -0.02662897610264492 0.010068756315656405 0.0 0.04532219878437674 -0.01764550941640193 0.0 -0.06802968385327161 -0.007927998180607328 0.0 0.41827301934658184 -0.049007431241479195 0.0 -0.04799249945692625 -0.01066770152970197 0.0 0.11182972175860338 0.03014243285399082 0.0 -0.08273587250496658 0.005780637389076659 0.0 -0.07321337942054862 -0.00623320710473257 0.0 -0.09987691596079233 0.0007499119681483918 0.0 0.03903630601978383 0.01724435186928001 0.0 1.2159564741918574 0.1026998526993483 0.0 0.32720559443353625 0.03743655130157505 0.0 0.3041736939485604 -0.04476278105954332 0.0 0.2554589583667502 -0.010186458591961585 0.0 0.707977162635129 -0.02064780789982544 0.0 0.3059861786799041 0.005570447504971534 0.0 1.1765531045586843 0.05297859341336814 0.0 0.8887429463231687 0.060997706451304035 0.0 0.9291288128727603 -0.08285535587839578 0.0 -0.047935529560250975 -0.004206293485852607 0.0 -0.05910075075221949 -0.003674955508837423 0.0 -0.11930498482647034 -0.001471339145197019 0.0 -0.04599435054282107 0.004098092695423026 0.0 -0.07985435581065008 -0.004179535000389497 0.0 0.3255523079748986 -0.03858133193931355 0.0 1.2582908524254126 -0.09357802542565775 0.0 0.6259013656841212 -0.06168432662852505 0.0 0.8935581916423873 -0.08593187849851984 0.0 -0.02934591498530485 0.012892464367242002 0.0 0.06042610278731156 -0.022893547329577883 0.0 -0.008000368627663755 -0.01497121767969352 0.0 0.2078836960989795 -0.03866306739513831 0.0 -0.016906000412103335 -0.014529526899226873 0.0 1.2531042321016717 0.10604803357901103 0.0 -0.06729408191200635 -0.0010307083449537745 0.0 -0.015348550610502158 0.010672608730691775 0.0 -0.051956690834252695 7.80330938697479e-05 0.0 0.053940032222453506 -0.021785106057742597 0.0 0.3369282097967681 0.024619673695035926 0.0 0.687846288094759 -0.07012505800648908 0.0 0.5070245759783357 -0.05983616030138662 0.0 0.7867778512593749 -0.06837123360868129 0.0 0.2642029708477794 -0.03838629368964561 0.0 0.8190109448469143 -0.08769488404479088 0.0 1.166461807108046 -0.09109889580024222 0.0 1.0674768066681324 -0.08369653353930985 0.0 1.040708167486278 -0.07519777649783287 0.0 0.5917488389726395 -0.0695127608926484 0.0 0.5031800058890157 -0.06454736594398924 0.0 0.3903209187964367 -0.057464955818124365 0.0 0.36572327399901905 -0.05412176227123006 0.0 0.14370683066344242 -0.03305818185411087 0.0 0.7865382969591986 -0.0883308929072134 0.0 0.25934523553380884 0.0147047696079437 0.0 0.606536645276025 0.03784160429713648 0.0 0.06665057363186652 0.006000120383748204 0.0 0.17114155349152757 0.0178075093093162 0.0 -0.07063713580558072 0.0002845494641782369 0.0 1.3327157235985803 -0.02442093361431363 0.0 1.2179133122641288 0.04113159043951189 0.0 1.355195428240874 -0.012062236675573367 0.0 1.3267557850534177 -0.0631939839134409 0.0 0.16850276829731908 -0.035976598799548946 0.0 0.3564882907122237 -0.05478028134854107 0.0 0.5583673383342638 0.04678744811558256 0.0 0.08675472251456795 0.015560437044059402 0.0 1.3082145562640286 0.004063311368983621 0.0 1.3482717951087064 -0.03297295450690854 0.0 0.5168687928041161 0.06838879544447465 0.0 1.3271716657712322 -0.07668888457164595 0.0 0.5883107955344268 0.043282135649807645 0.0 1.2823482150428913 0.07193696989450458 0.0 0.33230393897413296 0.03359797672625766 0.0 0.70369348856349 0.06377778916814172 0.0 1.3347046620888465 0.02414417243235694 0.0 1.231272897019553 -0.024201872359364263 0.0 1.3178550229852841 -0.08671921037485233 0.0 0.8246226218265146 0.06137240691299102 0.0 1.047508767531121 0.07895985206853652 0.0 1.1067680457202371 0.07235402095365263 0.0 1.2665761541071892 0.09850909628257959 0.0 1.1281892542597998 0.09728064394375906 0.0 0.974482005527415 0.0812648037075155 0.0 0.6682790923408792 0.06732030653411344 0.0 1.2734732214539217 -0.08999772980599258 0.0 0.0 0.0 0.0 1.3079335659695481 0.05781388174946039 0.0 0.9164113714793412 0.089532369760614 0.0 0.32478085191611783 0.04195514412427872 0.0 1.3158550503914048 0.07162110376497192 0.0 0.8988861238414991 0.085326497010092 0.0 1.270513579789828 0.0912841240625491 0.0 0.5975547788816942 0.06620954566057245 0.0 1.2616089094698433 0.1035782779086289 0.0 0.5484490717018758 0.06805833556531367 0.0 0.25527790777711595 0.04019200561879237 0.0 1.1462044729839083 0.101552433317696 0.0 0.6607485671038404 0.07469586604608126 0.0 1.0718410232548916 0.10331116847533871 0.0 0.8439178296777903 0.09043712391060514 0.0 0.7748959796049832 0.08855167280827037 0.0 1.1953747987711631 0.08870555002563954 0.0 1.1157426907849604 0.09185630304653938 0.0 1.3061556896949238 0.08189095837010624 0.0 0.15522314528489317 0.028824226608424135 0.0 1.1521046228139467 0.07906307480130194 0.0 1.2160487342600157 0.10645499937176477 0.0 1.156805793007512 0.10739905651742818 0.0 1.2332751455996402 0.1070483360708597 0.0 1.2433204499797186 0.10813482513603867 0.0 1.291090368985572 0.08706666497049159 0.0 1.1831757945045591 0.06843779848080292 0.0 0.9441824358544947 0.10117561088991868 0.0 1.2291124024406872 0.09247429744175474 0.0 1.278894194744273 0.09066811787829407 0.0 1.0451103742676273 0.06525740150360794 0.0 1.1618026799058032 0.1093951967326294 0.0 1.0785309095448552 0.10781264580797573 0.0 1.0589953158323602 0.10599165626455806 0.0 1.232202598675212 0.09675881955017625 0.0 0.0 0.0 0.0 0.6445055510194327 -0.005590711676739602 0.0 1.0778306359259515 0.43425486208674374 0.0 1.166898892038273 0.4222705265548722 0.0 1.0822534053760942 -0.42677354692807534 0.0 0.8656033470374775 -0.22701909977105642 0.0 0.9788876498090833 -0.2555085996737365 0.0 0.8923691786001832 -0.08499541784000494 0.0 1.2228279263050237 -0.05227647006125934 0.0 1.0814387803647914 -0.06398622784901856 0.0 1.198749549778498 -0.10443949578806465 0.0 1.265167878918031 -0.08453790638736772 0.0 1.315348058892247 -0.05369736086797901 0.0 -0.08309350571914154 -0.002573821361785651 0.0 -0.05036013567592434 0.007690288760449522 0.0 0.0007031642432409008 0.010048344378641494 0.0 0.0006363256902561809 0.012048562395185862 0.0 0.14657737448538372 0.026835263926340572 0.0 -0.05705961065848434 0.0081954797100974 0.0 0.06111721258303479 0.021884663335784683 0.0 0.21666151060968034 0.03708895143001824 0.0 0.0847767365179654 0.03814198782863645 0.0 -0.03606087922297411 0.015007943966581757 0.0 1.0348451495965885 0.16078549024323432 0.0 -0.07037697675485086 0.004672467321577339 0.0 1.255078331429016 -0.10061732538649978 0.0 1.1424750145481197 -0.09824460488346046 0.0 0.9514117028831847 -0.09249978418950543 0.0 1.1047134401302545 -0.1021835723881007 0.0 1.2399569558678782 -0.10657476201272012 0.0 0.914075698115905 -0.09545177572243024 0.0 1.2475664716467776 -0.1067714528426927 0.0 1.0787178266375026 -0.10497874276318829 0.0 1.1338249511227814 -0.10493662653557344 0.0 0.8649924895646675 -0.09492785954368894 0.0 0.9084915439392632 -0.09732473861925872 0.0 0.6275973618762054 -0.07780679591148565 0.0 1.105229227508382 -0.10752145672685481 0.0 1.2336497749380402 -0.10634137103582324 0.0 1.0698737438053199 -0.1053297930091683 0.0 1.168040172403812 -0.08589917829505152 0.0 1.1937471779000686 -0.108608159030186 0.0 0.683617046616628 -0.08187502315822716 0.0 1.1417029413542572 -0.10577897031112607 0.0 0.9404376399272666 -0.0987138255