<?xml version="1.0"?>
<VTKFile type="UnstructuredGrid"  version="0.1"  >
<UnstructuredGrid>
<Piece  NumberOfPoints="1289" NumberOfCells="2413">
<Points>
<DataArray  type="Float64"  NumberOfComponents="3"  format="ascii">0 0 0  0 0.41 0  2.2 0.41 0  2.2 0 0  0.1 0.1 0  0.1 0.3 0  0.8 0.3 0  0.8 0.1 0  0.25 0.2 0  0.248976 0.210065 0  0.245948 0.219718 0  0.241038 0.228563 0  0.234448 0.23624 0  0.226448 0.242432 0  0.217365 0.246888 0  0.207571 0.249423 0  0.197468 0.249936 0  0.187467 0.248404 0  0.17798 0.24489 0  0.169395 0.239539 0  0.162062 0.232569 0  0.156283 0.224265 0  0.152293 0.214968 0  0.150257 0.205058 0  0.150257 0.194942 0  0.152293 0.185032 0  0.156283 0.175735 0  0.162062 0.167431 0  0.169395 0.160461 0  0.17798 0.15511 0  0.187467 0.151596 0  0.197468 0.150064 0  0.207571 0.150577 0  0.217365 0.153112 0  0.226448 0.157568 0  0.234448 0.16376 0  0.241038 0.171437 0  0.245948 0.180282 0  0.248976 0.189935 0  1.1 0 0  1.1 0.41 0  0.1 0.2 0  0.45 0.1 0  0.45 0.3 0  0.55 0 0  0.275 0.1 0  0.275 0.3 0  0.275 0 0  0.55 0.41 0  0 0.205 0  0.825 0 0  0.825 0.41 0  0.275 0.41 0  0.1 0.15 0  0.1875 0.1 0  0.1 0.25 0  0.1875 0.3 0  0.132322 0.2 0  0.241426 0.253518 0  0.241426 0.146482 0  0.264574 0.17974 0  0.264574 0.22026 0  0.138434 0.187348 0  0.153372 0.150948 0  0.148413 0.164094 0  0.176495 0.136535 0  0.22768 0.143571 0  0.138434 0.212652 0  0.148413 0.235906 0  0.176495 0.263465 0  0.22768 0.256429 0  0.23125 0.3 0  0.24769 0.24094 0  0.23125 0.1 0  0.24769 0.15906 0  0.26253 0.193641 0  0.190482 0.137872 0  0.166753 0.146661 0  0.157737 0.244461 0  0.190482 0.262128 0  0.203107 0.261264 0  0.253635 0.22977 0  0.203107 0.138736 0  0.253635 0.17023 0  0.261028 0.206206 0  0.167707 0.251809 0  0.143629 0.224191 0  0.215302 0.2591 0  0.270465 0.245894 0  0.215302 0.1409 0  0.270465 0.154106 0  0.284052 0.202587 0  0.14375 0.3 0  0.209375 0.3 0  0.225966 0.278501 0  0.209375 0.1 0  0.225966 0.121499 0  0.211613 0.273759 0  0.211613 0.126241 0  0.143629 0.175809 0  0.1 0.175 0  0.133484 0.164832 0  0.144491 0.249539 0  0.1 0.225 0  0.133484 0.235168 0  0.3625 0.3 0  0.25691 0.253381 0  0.25691 0.146619 0  0.277205 0.188698 0  0.184724 0.275712 0  0.237372 0.268285 0  0.184724 0.124288 0  0.237372 0.131715 0  0.197578 0.273149 0  0.193656 0.286994 0  0.197578 0.126851 0  0.193656 0.113006 0  0.122953 0.187671 0  0.118362 0.153758 0  0.155372 0.258107 0  0.122953 0.212329 0  0.118362 0.246242 0  0.276394 0.27264 0  0.276394 0.12736 0  0.280965 0.170013 0  0.253125 0.3 0  0.14375 0.1 0  0.253125 0.1 0  0.269489 0.26014 0  0.269489 0.13986 0  0.303639 0.184297 0  0.165625 0.3 0  0.134742 0.273113 0  0.257831 0.274737 0  0.255279 0.128499 0  0.3625 0.1 0  0.165625 0.1 0  0.162031 0.132368 0  0.134955 0.126405 0  0.149334 0.125568 0  0.142936 0.139597 0  0.12695 0.140259 0  0.242514 0.285501 0  0.242514 0.114499 0  0.1 0.125 0  0.117483 0.12555 0  0.11154 0.139776 0  0.121875 0.1 0  0.109143 0.1125 0  0.126805 0.114 0  0.220313 0.29129 0  0.351562 0.287369 0  0.207222 0.2866 0  0.220312 0.10871 0  0.1375 0 0  0.20625 0 0  0.207222 0.1134 0  0.11722 0.17118 0  0.1 0.1625 0  0.0778409 0.16875 0  0.0862762 0.15625 0  0 0.15375 0  0 0.1025 0  0.11722 0.22882 0  0.1 0.2375 0  0 0.3075 0  0.0862762 0.23125 0  0.0598995 0.222547 0  0.0860223 0.2125 0  0.289584 0.181469 0  0.300267 0.16446 0  0.163832 0.269071 0  0.149597 0.273325 0  0.1 0.275 0  0.268498 0.285953 0  0.31875 0.3 0  0.294154 0.254672 0  0.296875 0.3 0  0.293558 0.271845 0  0.285095 0.286799 0  0.324298 0.264316 0  0.307866 0.263745 0  0.317093 0.234901 0  0.315485 0.281219 0  0.316547 0.250625 0  0.344693 0.243731 0  0.331592 0.251147 0  0.35129 0.270663 0  0.338689 0.263683 0  0.340625 0.3 0  0.249849 0.264383 0  0.265097 0.11422 0  0.284688 0.156136 0  0.242188 0.324017 0  0.0856613 0.2625 0  0.132812 0.0612217 0  0.264062 0.0612217 0  0.198437 0.07598340000000001 0  0.0860223 0.1375 0  0.0794526 0.191089 0  0.285228 0.140397 0  0.298655 0.148737 0  0.31875 0.1 0  0.327335 0.15374 0  0.296875 0.1 0  0.312289 0.155283 0  0.313348 0.135607 0  0.321802 0.173916 0  0.298433 0.134116 0  0.112124 0.2625 0  0.127526 0.259083 0  0.121875 0.3 0  0.0682687 0.241503 0  0.1 0.2875 0  0.117762 0.28125 0  0.107813 0.3 0  0.103906 0.313849 0  0.0778409 0.28125 0  0.1375 0.41 0  0.0862762 0.29375 0  0.08886860000000001 0.24375 0  0.307812 0.338778 0  0.307812 0.292227 0  0.33216 0.279164 0  0.387888 0.266414 0  0.264063 0.31948 0  0.110937 0.07598340000000001 0  0.242188 0.07598340000000001 0  0.319914 0.11839 0  0.340625 0.1 0  0.334448 0.133793 0  0.329687 0.108539 0  0.346259 0.118491 0  0.360334 0.173636 0  0.327539 0.205033 0  0.132812 0.288712 0  0.362436 0.278836 0  0.368105 0.259418 0  0.4125 0.41 0  0.329687 0.324017 0  0.329687 0.292306 0  0.285938 0.318952 0  0.417187 0.338778 0  0.324481 0.14148 0  0.351562 0.106771 0  0.40625 0.1 0  0.341028 0.168342 0  0.319221 0.190479 0  0.335292 0.184501 0  0.305563 0.20794 0  0.220313 0.31948 0  0.132812 0.332772 0  0.0865876 0.311259 0  0.0598995 0.302453 0  0.0906541 0.343255 0  0.353543 0.255837 0  0.36574 0.237633 0  0.405007 0.254279 0  0.275795 0.352123 0  0.4125 0 0  0.35493 0.137394 0  0.366563 0.120618 0  0.35917 0.205246 0  0.198438 0.318952 0  0.0626109 0.263892 0  0.40625 0.3 0  0.354809 0.155936 0  0.386512 0.146872 0  0.373101 0.159939 0  0.384375 0.1 0  0.343394 0.19929 0  0.350682 0.185683 0  0.368101 0.189748 0  0.344016 0.221511 0  0.391108 0.213329 0  0.376279 0.204783 0  0.398843 0.182768 0  0.375804 0.222746 0  0.390665 0.196958 0  0.394004 0.23518 0  0.359883 0.222828 0  0.419908 0.204359 0  0.404243 0.204783 0  0.412615 0.224526 0  0.20625 0.41 0  0.165625 0.325257 0  0.0347982 0.244954 0  0.379558 0.247154 0  0.34165 0.147603 0  0.372264 0.136992 0  0.388988 0.121989 0  0.373437 0.108554 0  0.351562 0.31948 0  0.391367 0.16527 0  0.399572 0.223324 0  0.452011 0.227371 0  0.40877 0.239392 0  0.431491 0.237337 0  0.421224 0.250459 0  0.449619 0.262098 0  0.418865 0.276779 0  0.437063 0.252274 0  0.415673 0.263227 0  0.430988 0.266772 0  0.402767 0.273419 0  0.452967 0.244883 0  0.428125 0.3 0  0.408502 0.286186 0  0.384375 0.3 0  0.392267 0.285807 0  0.465927 0.219339 0  0.43489 0.283846 0  0.376424 0.286289 0  0.625 0.3 0  0.473533 0.205186 0  0.461713 0.255517 0  0.5375 0.3 0  0.465725 0.235405 0  0.44631 0.201425 0  0.471875 0.3 0  0.494307 0.227729 0  0.459448 0.206736 0  0.462294 0.180792 0  0.478933 0.227536 0  0.486793 0.21381 0  0.486322 0.251373 0  0.50065 0.215318 0  0.54005 0.175389 0  0.474633 0.189893 0  0.512916 0.208697 0  0.49531 0.199967 0  0.475889 0.175275 0  0.625 0.1 0  0.459311 0.153933 0  0.513645 0.242704 0  0.392892 0.248539 0  0.374815 0.271913 0  0.365974 0.14871 0  0.395312 0.109184 0  0.417061 0.123981 0  0.483196 0.277003 0  0.381967 0.179632 0  0.429898 0.219374 0  0.433473 0.206165 0  0.43149 0.181038 0  0.444208 0.215487 0  0.472985 0.247309 0  0.49375 0.3 0  0.475579 0.262714 0  0.49916 0.274293 0  0.501175 0.184809 0  0.514164 0.225681 0  0.543648 0.214977 0  0.5341630000000001 0.23481 0  0.527396 0.216171 0  0.5375 0.1 0  0.534548 0.202315 0  0.561545 0.192513 0  0.5494289999999999 0.201221 0  0.570923 0.218346 0  0.412582 0.149833 0  0.489327 0.264745 0  0.502439 0.254775 0  0.462391 0.271166 0  0.496775 0.241732 0  0.5294410000000001 0.268606 0  0.482812 0.291099 0  0.46879 0.285038 0  0.452663 0.284065 0  0.51789 0.257882 0  0.53408 0.252026 0  0.560142 0.243543 0  0.545708 0.243474 0  0.547532 0.229019 0  0.55282 0.265323 0  0.398971 0.153424 0  0.400349 0.135684 0  0.410135 0.168145 0  0.428823 0.161323 0  0.415266 0.183779 0  0.329687 0.0810483 0  0.395312 0.0612217 0  0.373437 0.318952 0  0.439062 0.324017 0  0.561816 0.229354 0  0.585029 0.239287 0  0.431827 0.139854 0  0.446796 0.168929 0  0.351562 0.07598340000000001 0  0.395313 0.318944 0  0.54337 0.150762 0  0.460937 0.31948 0  0.418412 0.137529 0  0.428125 0.1 0  0.442783 0.152332 0  0.450742 0.134294 0  0.373437 0.0805201 0  0.384383 0.342558 0  0.482812 0.318952 0  0.429239 0.127457 0  0.444274 0.117405 0  0.426548 0.113815 0  0.49375 0.1 0  0.488954 0.113984 0  0.457973 0.121842 0  0.471621 0.137346 0  0.515625 0.325257 0  0.48125 0.41 0  0.417187 0.07598340000000001 0  0.496363 0.126778 0  0.479043 0.155715 0  0.439062 0.0805201 0  0.481795 0.126919 0  0.471875 0.1 0  0.489227 0.142159 0  0.515625 0.1 0  0.520062 0.147117 0  0.501244 0.161791 0  0.505431 0.112984 0  0.505344 0.14029 0  0.526563 0.119081 0  0.5181750000000001 0.131908 0  0.539868 0.136937 0  0.460937 0.108383 0  0.474242 0.114415 0  0.460937 0.0810483 0  0.487841 0.167168 0  0.526563 0.0612217 0  0.526563 0.106406 0  0.537619 0.112743 0  0.58125 0.1 0  0.559375 0.1 0  0.482812 0.08105569999999999 0  0.471883 0.0587655 0  0.570312 0.129396 0  0.548437 0.07598340000000001 0  0.504687 0.08105569999999999 0  0.49375 0.0470127 0  0.570312 0.112663 0  0.592798 0.12103 0  0.553986 0.12103 0  0.570312 0.0805201 0  0.48125 0 0  0.114787 0.2 0  0.160769 0.284765 0  0.175816 0.288361 0  0.162602 0.116048 0  0.154687 0.07598340000000001 0  0.176562 0.0805201 0  0.0598995 0.147547 0  0.307812 0.109924 0  0.291279 0.117157 0  0.278491 0.112989 0  0.285937 0.07598340000000001 0  0.307812 0.0805201 0  0.296928 0.196743 0  0.318141 0.218507 0  0.330208 0.227509 0  0.301397 0.225668 0  0.302706 0.241401 0  0.292574 0.21424 0  0.282762 0.230935 0  0.284351 0.244775 0  0.269553 0.23261 0  0.278572 0.217242 0  0.226924 0.342606 0  0.446928 0.185396 0  0.515625 0.3 0  0.504687 0.288879 0  0.515256 0.276534 0  0.529479 0.285328 0  0.58125 0.3 0  0.541969 0.272936 0  0.559375 0.3 0  0.556796 0.282529 0  0.543473 0.287206 0  0.581429 0.267774 0  0.566728 0.271171 0  0.570869 0.255585 0  0.577404 0.283865 0  0.603125 0.3 0  0.597531 0.28035 0  0.570312 0.338778 0  0.592188 0.292492 0  0.603513 0.256094 0  0.614063 0.286265 0  0.610329 0.27064 0  0.632708 0.251285 0  0.657223 0.261594 0  0.618789 0.257807 0  0.614188 0.22987 0  0.630935 0.265614 
[...]
<PointData  Vectors="v"> 
	<DataArray  type="Float64"  Name="v"  NumberOfComponents="3" format="ascii">
0.0 0.0 0.0 0.0 0.0 0.0 0.0 0.0 0.0 0.0 0.0 0.0 0.796231514871912 -0.19598507676710372 0.0 0.8404067732845689 0.20776698002874974 0.0 1.1688027966382004 -0.06001952485380977 0.0 1.1364459150193735 0.055320036654370706 0.0 0.0 0.0 0.0 0.0 0.0 0.0 0.0 0.0 0.0 0.0 0.0 0.0 0.00085854699629371 0.0008005887081645299 0.0 0.00035300318706787883 0.0004758155572733273 0.0 0.0004932449873714217 0.0008665400629667511 0.0 0.0 0.0 0.0 0.0 0.0 0.0 0.0 0.0 0.0 0.0 0.0 0.0 0.0 0.0 0.0 0.0 0.0 0.0 0.0 0.0 0.0 0.0 0.0 0.0 0.0 0.0 0.0 0.0 0.0 0.0 0.0 0.0 0.0 0.0 0.0 0.0 0.0 0.0 0.0 0.0 0.0 0.0 0.0 0.0 0.0 0.0 0.0 0.0 0.0 0.0 0.0 0.0 0.0 0.0 0.00047315728506147864 -0.0008229948000592102 0.0 0.00028177072094495167 -0.00035313059897881013 0.0 0.0008390806104327458 -0.0007791883250254038 0.0 0.0 0.0 0.0 0.0 0.0 0.0 0.0 0.0 0.0 0.0 0.0 0.0 0.0 0.0 0.0 0.7613282509305137 -0.0012874302703510412 0.0 1.275596727056614 0.08287871948006328 0.0 1.266213998850911 -0.07743252386745482 0.0 0.0 0.0 0.0 1.3536303690513074 -0.13300646658285945 0.0 1.3581974061678086 0.1548440247081191 0.0 0.0 0.0 0.0 0.0 0.0 0.0 1.0 0.0 0.0 0.0 0.0 0.0 0.0 0.0 0.0 0.0 0.0 0.0 0.8425944303259515 -0.23189032995682302 0.0 1.1513931142493516 -0.34433481550470874 0.0 0.8637808731209545 0.22930363432369866 0.0 1.1662860711471554 0.35410159133205726 0.0 0.42823503350828385 -0.003974500727963732 0.0 0.1651031081075454 0.062481656309332195 0.0 0.16976700801741373 -0.060934977854824914 0.0 -0.027435203374166953 -0.03827860564676394 0.0 -0.025831866705532346 0.03624894205709089 0.0 0.3343783621429616 -0.2798480341548751 0.0 0.8578905112472357 -0.6734638775807228 0.0 0.6399929698915331 -0.6881545504401086 0.0 1.2061331467641572 -0.6132997850941865 0.0 0.41557826537099013 -0.06914706715423516 0.0 0.3304462619022169 0.26874253431652023 0.0 0.6428302770121034 0.6693214822884023 0.0 1.1851499969707335 0.615386154335353 0.0 0.4079279397719682 0.07150758622736766 0.0 1.3132534046774127 0.26091362858437894 0.0 0.3230528013199953 0.25172453459450306 0.0 1.3026329252515885 -0.24053480724586299 0.0 0.31421760104437363 -0.2393275798275767 0.0 -0.033428707087370974 -0.016929261012727594 0.0 1.1248619420227532 -0.3987526730149898 0.0 1.0931912672565136 -0.7243405302343722 0.0 0.8520557979563171 0.7707437317324526 0.0 1.1313749179940733 0.3995564444303037 0.0 0.7593807433964519 0.18601011205600299 0.0 0.10871447437218029 0.05139442670653513 0.0 0.769308794629395 -0.18190974552703698 0.0 0.11111181851555844 -0.04984847681507911 0.0 -0.02948918667270712 0.01904704760852592 0.0 1.0275099919142525 0.7188831255258843 0.0 0.4423801157022038 0.5291927870359519 0.0 0.4579400345091501 0.17774323247261334 0.0 0.2709664837256964 0.06898005703159266 0.0 0.46412692274295103 -0.173628148910314 0.0 0.2767492753505492 -0.06462030589369604 0.0 -0.07497930964602773 0.002286398313188188 0.0 0.965479809957564 0.3174159147070259 0.0 1.2605691143407807 0.3132090587840188 0.0 1.245146556422947 0.28887051194705265 0.0 1.234824858550847 -0.30766957715992577 0.0 1.2477834037652864 -0.28104590926906003 0.0 1.2201783438626617 0.3310539758219702 0.0 1.226086395860824 -0.32265699322212094 0.0 0.44288793147842687 -0.5445734562155274 0.0 0.8020164827287225 -0.13963116006967885 0.0 0.6715090079449422 -0.4197013712363816 0.0 0.8773672589859077 0.5938458959849792 0.0 0.7993047189162545 0.14280377775614603 0.0 0.6764908813266745 0.4201500411010703 0.0 1.2927491306027459 -0.007203464573678858 0.0 0.2930322526396669 0.14421814574762792 0.0 0.2944972422684153 -0.1343132689426371 0.0 -0.05424063504311242 -0.012921018095654888 0.0 1.265069621338443 0.4718309434033583 0.0 0.7687174117157249 0.12088403773830707 0.0 1.2611055105936975 -0.47329316007306116 0.0 0.789062263506829 -0.11559361661781586 0.0 1.2756044466772847 0.4180861424867875 0.0 1.2540084288531979 0.40114859176679746 0.0 1.2715510836534387 -0.41424368811898243 0.0 1.244682666740047 -0.38112569148749825 0.0 0.5835267674758597 -0.1605284183454736 0.0 0.7964323450835356 -0.3318095731189016 0.0 1.010432415488284 0.6038054680997721 0.0 0.5917495702917546 0.1506080957075981 0.0 0.8125604325117175 0.3317056430798162 0.0 0.7458686935709529 0.08080532315191037 0.0 0.7825251921288779 -0.07302886387758933 0.0 0.05215614274345747 -0.022075385094497003 0.0 1.3634789550308226 0.20746751769741292 0.0 0.9298180351668265 -0.3222267032070262 0.0 1.3445533031739452 -0.1900554467669692 0.0 0.4091132503775146 0.09076826421464096 0.0 0.4269298870283707 -0.07821191327226397 0.0 -0.05448380132673153 -0.008176853105903948 0.0 1.0573640044309416 0.35401248846180855 0.0 0.9431600712696162 0.39147938148891936 0.0 0.922239207825397 0.11235769397503392 0.0 0.8242012591714395 -0.08692034057135825 0.0 1.3068123911842164 0.0166277732951622 0.0 1.0275029427504399 -0.3451953388220828 0.0 1.0744796336992062 -0.5703257454425548 0.0 0.9301273969415169 -0.38939428053760794 0.0 0.997458883062731 -0.4386500295934935 0.0 0.93292397410296 -0.5428271250116717 0.0 0.8655275327650215 -0.4064987360456677 0.0 1.273404836240093 0.23290675214039921 0.0 1.271498371174829 -0.2196058754627447 0.0 0.8526539127412461 -0.23563056496696985 0.0 0.8790467340306684 -0.30995230718322625 0.0 0.8528927620585635 -0.29904469137683876 0.0 0.851405732989384 -0.2564004825564523 0.0 0.8542089722535314 -0.2527793384272202 0.0 0.8962693221382367 -0.31946560030005267 0.0 1.3292538507926057 0.3156251933306947 0.0 1.0845732245993123 -0.0024407352821604277 0.0 1.3146046888306773 0.36238511662605327 0.0 1.321324201110561 -0.2960725051255307 0.0 0.0 0.0 0.0 0.0 0.0 0.0 1.2994161472627843 -0.34947774206754334 0.0 0.7142420975938711 -0.26731577371594817 0.0 0.8203901330553363 -0.2107639405763557 0.0 0.8711707646334091 -0.11075457971415759 0.0 0.862439945427738 -0.1637667601607827 0.0 0.9375 0.0 0.0 0.7500000000000001 0.0 0.0 0.722473904327946 0.2653089168251785 0.0 0.824037889961455 0.20014874339281216 0.0 0.7499999999999999 0.0 0.0 0.8697171095990006 0.12782649796050033 0.0 0.928712564808795 0.042837987932658944 0.0 0.8481115564814846 0.0450710084463639 0.0 -0.03481572611854847 -0.011601927172391231 0.0 0.09131865365502723 -0.017594356812085227 0.0 1.1150196890087605 0.5547894584788748 0.0 1.0190169675204785 0.47315705466609964 0.0 0.8809732130545105 0.24548006372063508 0.0 1.2000970348275255 0.1390492766853544 0.0 1.3288608118457323 0.05981279768540161 0.0 0.35173635255966 0.037971720077514266 0.0 1.3561575300157316 0.10288178629164563 0.0 0.7139030230099347 0.05372387552670293 0.0 1.171176928403406 0.10021875278009865 0.0 0.5144722678260802 0.015815349084095855 0.0 0.4960763529989567 0.030015281046385046 0.0 0.06968130985050859 0.0134195168537787 0.0 0.9566560195642836 0.03451392655457288 0.0 0.2569283668612676 0.02215004044978482 0.0 0.16314941186054796 0.008509342966341548 0.0 0.2674827295585352 0.014613171801090353 0.0 0.6665756932552324 -0.004833834430863613 0.0 0.4982306406100014 0.006984748780502959 0.0 1.3157573528285231 0.019303688871954907 0.0 0.5424668971331489 0.062207044533057934 0.0 1.2301830932422944 -0.14200954056547838 0.0 0.20179530118128924 -0.037566022911537135 0.0 1.2058080247973695 0.17356420239263595 0.0 0.8828247969930594 0.179748060334591 0.0 0.7011180189922582 -0.16795450608949064 0.0 1.1155631110458033 -0.09422847809127251 0.0 1.0385360764021572 -0.2237616927709537 0.0 0.8637496329115212 -0.18265025421287068 0.0 0.875419023882097 -0.025591927338623782 0.0 0.4392644251350306 -0.048052475006028224 0.0 0.2902304238144162 -0.03306105006592855 0.0 1.3289486200999172 -0.04190644348408445 0.0 0.20832373542818253 -0.01352190898272192 0.0 1.355423604310385 -0.08636747925018273 0.0 0.19130058350477114 -0.019090798306749424 0.0 0.5354251039451967 -0.01568852151093383 0.0 -0.0015990750147700384 -0.01129442086007568 0.0 0.5721083762829235 -0.03143899301762098 0.0 0.8788933910504134 0.2971649047275884 0.0 0.8795628048072991 0.41078206656859795 0.0 0.8850965631793462 0.27034369444384787 0.0 0.9122197121725364 0.10985411484644585 0.0 0.865180614171747 0.22330280674697786 0.0 0.9047302997046853 0.30372906985590264 0.0 0.85723996722374 0.23352912298700113 0.0 0.8020291655070035 0.1833880022598483 0.0 0.8670562244188071 0.16153650999720615 0.0 0.0 0.0 0.0 0.8415199753909918 0.176700842923053 0.0 0.8706565761018136 0.1710313161449036 0.0 1.213130724833709 0.04975711661645187 0.0 1.237606694516469 0.06495492104617126 0.0 0.8902206477894257 0.013213585766280133 0.0 0.5939524831231031 -0.025989108355060547 0.0 1.2798813285721955 0.1470862265654637 0.0 0.7176144665520726 -0.1737233244551597 0.0 1.1779954122154526 -0.16455584005435853 0.0 0.9985780928200033 -0.019811892902375287 0.0 1.3235669304206996 -0.0077415064825472535 0.0 0.5853430982385862 -0.00015131125646765026 0.0 1.2204246870949462 -0.012616578739611055 0.0 0.9834151572039481 0.009199470242246445 0.0 -0.004599084684001934 -0.0071225607922982236 0.0 -0.09613605274032876 0.001060809305590245 0.0 0.9448614467331151 0.34123791100209 0.0 0.8777672471793698 -0.018438855617007654 0.0 0.42736257201093364 -0.00819146158431729 0.0 0.0 0.0 0.0 1.3286598001238088 0.037492233177387646 0.0 1.2126198587854948 0.024943121406399166 0.0 1.3172534431258835 0.11458978322224768 0.0 1.25240661918298 -0.04435118987472846 0.0 0.41336116093689534 -0.013808926737199835 0.0 1.228303678881218 0.010487907880055585 0.0 1.2911901113604989 0.056865215134428576 0.0 0.04095016204051258 -0.009909702148472864 0.0 -0.08246127384674339 -0.005244133701848878 0.0 -0.06766907125527401 -0.007585967365290818 0.0 -0.08112107027366502 0.0029506375237639956 0.0 1.1858185525020315 0.2197244391348695 0.0 0.7774520054530476 0.19847961832130864 0.0 0.7779154327768582 0.15423373481183517 0.0 0.7857377971269293 0.10690846601161945 0.0 0.6205754148735023 0.11098248087080577 0.0 0.3527895880571352 0.0014267623399116846 0.0 0.09310251962894342 0.0038374198333299015 0.0 0.36455819329516254 -0.020653129053120597 0.0 1.0719749005854777 0.07672824264320939 0.0 0.0 0.0 0.0 0.5197186614731784 0.011364198835739745 0.0 0.9318160324871528 0.029180694990441923 0.0 -0.1094614790313916 0.0004850014444565455 0.0 1.0970185311240894 0.26703338984559255 0.0 0.9003340543517256 0.11239771371878801 0.0 1.2803222080945202 -0.04955863840738233 0.0 0.1865864497438804 -0.0037521695444078574 0.0 0.3586642488241583 0.01773811001542778 0.0 0.14293488317073783 5.168470189892762e-05 0.0 1.3029616849255745 0.03924620470455427 0.0 -0.10613569788770948 -0.0016893126639362926 0.0 -0.07755558915335864 -0.0066476109280895045 0.0 -0.09783302679662279 -0.004682224081194018 0.0 -0.04366086576927824 0.006943291300088617 0.0 -0.0957231997199674 0.0009363249350616233 0.0 -0.11597272208939054 -7.346747040568216e-05 0.0 -0.0669573479838231 -0.002176163437830242 0.0 -0.04158100735336334 0.0033581656895450137 0.0 -0.11980502983656574 -0.00217049899070053 0.0 0.07497169318199103 -0.0020816528230904723 0.0 -0.038992795539668355 0.00559933228655 0.0 -0.12327282375352006 -0.0012623597988809564 0.0 -0.12192646260747429 -0.0008761112479319939 0.0 -0.024063517193586233 -0.0025485814153844927 0.0 0.0 0.0 0.0 0.9464213036440292 0.25546110348489365 0.0 0.9513523060448023 0.04010344707408909 0.0 0.22454450302693021 -0.004461824820923092 0.0 0.3084445865290231 -0.004561711152695792 0.0 0.5441713124441117 0.020883016183012557 0.0 0.9122449271500599 0.042968764115994186 0.0 1.1920426502388577 0.034542413136963795 0.0 1.3537057182649768 0.01463932740637679 0.0 0.0879226211844135 0.0021084448546271482 0.0 -0.036176987755195254 -1.7108777766633022e-05 0.0 0.022225009549760328 -0.011798791006548065 0.0 0.1350311774109322 -0.008846018598480585 0.0 0.12514773426819648 -0.013945077631059956 0.0 0.31508452220174255 -0.02339217784751268 0.0 0.5748300915260481 -0.0510718723064722 0.0 0.8592859890708128 -0.05255178374025429 0.0 0.3663160614793093 -0.031908235706587025 0.0 0.5548987697851357 -0.03596762497158678 0.0 0.6501961291326595 -0.04791209149796403 0.0 0.7699658268287495 -0.04117829752237346 0.0 0.25863001546527653 -0.028400994018242625 0.0 1.2727871400851332 -0.06469902590016759 0.0 1.0584560190188277 -0.05193193333421201 0.0 1.2865221148110846 -0.029144283318558405 0.0 1.0489428298291676 -0.03980781857689029 0.0 -0.043263459085252136 -0.008951998931605195 0.0 1.0269704817063596 -0.06712390778024578 0.0 1.0600953887312021 -0.030152908625157356 0.0 1.2266383755510528 -0.10316505460160054 0.0 -0.10914669862748393 -0.002335206956261279 0.0 0.4599061962914108 -0.0458136949023438 0.0 1.251178098509028 -0.10542633970075717 0.0 0.13103704853290274 -0.021901666843281226 0.0 -0.12230078650118607 -0.0009885456913588523 0.0 1.2614540043584295 -0.0874132342239205 0.0 0.06256554039354544 -0.021160063399614164 0.0 -0.11184371229362343 -0.0026694685078140655 0.0 -0.026512642467612643 0.009872963418493474 0.0 0.04510617760700183 -0.01781112934564315 0.0 -0.06816313658497815 -0.008115985389580554 0.0 0.4179639001626098 -0.04908378168443259 0.0 -0.04816447909558416 -0.01082107003039956 0.0 0.11217475167552488 0.030226160431951487 0.0 -0.08266503718828883 0.005568511029405463 0.0 -0.07332715159452582 -0.006353649149497043 0.0 -0.09988177736880972 0.0005658563505322261 0.0 0.03921365596205858 0.017064562245267506 0.0 1.2157775086962193 0.10284851558933447 0.0 0.3273882052588793 0.037306507833004925 0.0 0.30377431286054546 -0.04479297513585801 0.0 0.25540749439526034 -0.010264267403895746 0.0 0.7079435640426248 -0.020686883108993366 0.0 0.3059774096791722 0.005516894442956137 0.0 1.1766065588847894 0.05295054169432486 0.0 0.8888144645124912 0.06094898718913442 0.0 0.9288689196320818 -0.08284545458525844 0.0 -0.04791345944302259 -0.00430713433520786 0.0 -0.05917651117306754 -0.003845642768453677 0.0 -0.11933220320451562 -0.0016597064142450226 0.0 -0.045927798522087206 0.003921065068807017 0.0 -0.07993187229217392 -0.004373993734618716 0.0 0.32529703164732526 -0.03869206663870543 0.0 1.2581212218502658 -0.09350734876269756 0.0 0.6256387207965445 -0.06173499791216763 0.0 0.8932427307289428 -0.08589516528143289 0.0 -0.029185952111959134 0.012750576232972311 0.0 0.06012380206074237 -0.022970845813993772 0.0 -0.008237111058534745 -0.014896149327342699 0.0 0.20745497488976816 -0.038618880725033965 0.0 -0.01713306068789797 -0.01456320534200723 0.0 1.2532453739285918 0.10620985794684557 0.0 -0.06733273648554185 -0.001029790382724603 0.0 -0.015215820465359825 0.010892249559915164 0.0 -0.05197268381793875 0.0001890406528968763 0.0 0.053637710260379556 -0.021487441915815326 0.0 0.3369890547869792 0.02452162774979066 0.0 0.6875348438075943 -0.0701417454222654 0.0 0.5066531487506377 -0.059855200111310965 0.0 0.7865678971415433 -0.06840823133860259 0.0 0.2638700349651672 -0.03847675208685545 0.0 0.8185842814923975 -0.08757433505572423 0.0 1.1662573274365455 -0.09105785102918602 0.0 1.0672776783826912 -0.08368913576068664 0.0 1.0405431046012374 -0.07521007015264598 0.0 0.5913189155134982 -0.0694662154128373 0.0 0.5026941703557751 -0.06444956163505375 0.0 0.38978736009080134 -0.05722946504741925 0.0 0.3652197599817506 -0.05397819085204503 0.0 0.14329571795298865 -0.03294009630719284 0.0 0.7860524152683848 -0.08812465457637522 0.0 0.25938333413549675 0.014613666993706495 0.0 0.6065739861192371 0.037780442797278734 0.0 0.06670996098849633 0.005870494429749286 0.0 0.1712391134627402 0.017668987104275297 0.0 -0.07059463593032958 0.00013018879599173262 0.0 1.3327431085357457 -0.024426734483146965 0.0 1.217947866355032 0.04113050048810583 0.0 1.3551560040365576 -0.012065862592583512 0.0 1.3266965005659432 -0.06317420217135708 0.0 0.1680682936660119 -0.0357476801803534 0.0 0.35597373538731814 -0.05438114966743955 0.0 0.5584665141481854 0.046701538905507246 0.0 0.0868824648612277 0.015391717038016957 0.0 1.308239485964438 0.004059387671436058 0.0 1.3482246270680878 -0.03297181129373659 0.0 0.5173597608836807 0.06853690871171182 0.0 1.3270972568225239 -0.07665125991038292 0.0 0.5883794877560387 0.043205664063170245 0.0 1.2824323660006474 0.07192602658966704 0.0 0.33243873480075314 0.03347413323149303 0.0 0.7038412038840691 0.06370842317466335 0.0 1.3347402735699323 0.024137460689840365 0.0 1.2312392400717995 -0.02420245166948578 0.0 1.3177762644509465 -0.08665766807807625 0.0 0.824717169922277 0.06131579383353085 0.0 1.0476359929560701 0.07892969051236118 0.0 1.1068614174008182 0.07232164148629497 0.0 1.266732720141883 0.09857981939479997 0.0 1.128405180940005 0.097324569648561 0.0 0.9746459586071086 0.08123718947462738 0.0 0.6684993044415085 0.06726251759652375 0.0 1.2734352777815006 -0.08990330743739035 0.0 0.0 0.0 0.0 1.3079827125655064 0.057814303754272864 0.0 0.9166948523775608 0.08956359417176014 0.0 0.32503192549178667 0.04183820782788788 0.0 1.3159191176457437 0.07163211068072171 0.0 0.8991285269734257 0.08532224153449154 0.0 1.2706500860586456 0.0913160433392698 0.0 0.5978467059217456 0.06616529455005447 0.0 1.2617676458581277 0.1036979145053265 0.0 0.5488634169310985 0.06810051422652776 0.0 0.25559710274706593 0.040108668082307564 0.0 1.1464447633269907 0.1016378521945235 0.0 0.6611008200072396 0.07470437010391598 0.0 1.0721488055698047 0.10345174805664682 0.0 0.8442885672030637 0.0905274319798887 0.0 0.7753476557772254 0.08871814602320047 0.0 1.195522640812826 0.08870925110168897 0.0 1.1159318162550504 0.09186804940834173 0.0 1.3062302869212317 0.08192064161324594 0.0 0.1554726644137877 0.0286823685505182 0.0 1.152087538445013 0.07915650618555775 0.0 1.2162535559217398 0.1066019082913645 0.0 1.1570617191532646 0.10757721316305076 0.0 1.2333043817375078 0.10726590094382557 0.0 1.2434265568265908 0.10833697742336823 0.0 1.2911657881460152 0.08712231456253877 0.0 1.1832154695592945 0.06847643201414354 0.0 0.9445830377483102 0.10146634886562543 0.0 1.2290901301088066 0.0926125129647461 0.0 1.2789647341865655 0.09075423892028318 0.0 1.045101457705198 0.06530707687536683 0.0 1.162005111314232 0.10964841780252114 0.0 1.078759872744156 0.10812776296188654 0.0 1.059328064234488 0.10622048432468498 0.0 1.232150808151753 0.09691677143508697 0.0 0.0 0.0 0.0 0.644505606380156 -0.005589451884806528 0.0 1.0778350251028823 0.43424665353260955 0.0 1.166903402723239 0.4222578607454829 0.0 1.0822488072824057 -0.42678254894557904 0.0 0.8656029119977784 -0.22702501433438052 0.0 0.9788891516092366 -0.2555187641269256 0.0 0.8923686380992775 -0.08499244336483867 0.0 1.2228292832129761 -0.05228806357346622 0.0 1.081447365999004 -0.0639957989005394 0.0 1.1987279265192834 -0.10444878635642808 0.0 1.26519141801773 -0.08455102934617333 0.0 1.3153660500127744 -0.05370421680599183 0.0 -0.08308895352213586 -0.0025901592797441227 0.0 -0.05035567875931788 0.007655911933748407 0.0 0.0007032210209695114 0.010005401224911602 0.0 0.0006423394943950775 0.012033136520121746 0.0 0.14658383089400853 0.026812617834231393 0.0 -0.057049560538192295 0.008185686530422003 0.0 0.061124508075023384 0.021895841232719374 0.0 0.21662959350739586 0.037098804177895864 0.0 0.08478406875214752 0.03815535068160856 0.0 -0.03604095747263457 0.015015699753747625 0.0 1.034835417759053 0.1607747241606087 0.0 -0.07030864978408473 0.0044711458529993475 0.0 1.25490096627265 -0.10050330042275417 0.0 1.1422247869168471 -0.09816173635948056 0.0 0.9510640647058447 -0.09240986298883481 0.0 1.1044114202054578 -0.10203995832284153 0.0 1.2399003048710442 -0.10636605333837519 0.0 0.9136581830319928 -0.0952785748862484 0.0 1.2474426117791046 -0.10657593552159676 0.0 1.0783950080957292 -0.10475443637030672 0.0 1.133541203611358 -0.1047520097295328 0.0 0.8645508574281885 -0.0946030523429958 0.0 0.908062439948061 -0.09705349778847294 0.0 0.6270619690889038 -0.07751053223805003 0.0 1.104964816759176 -0.10725369985128956 0.0 1.2336842567230326 -0.1061370568055866 0.0 1.069648197506397 -0.10502420412804857 0.0 1.1681391346178782 -0.08579504466980244 0.0 1.1936518903675237 -0.10835586678320122 0.0 0.6831693831066421 -0.08143226014167976 0.0 1.1416518732895349 -0.10551277328393519 0.0 0.9401599108863636 -0.09834231